 Entering Link 1 = C:\G09W\l1.exe PID=      8664.
  
 Copyright (c) 1988,1990,1992,1993,1995,1998,2003,2009,2013,
            Gaussian, Inc.  All Rights Reserved.
  
 This is part of the Gaussian(R) 09 program.  It is based on
 the Gaussian(R) 03 system (copyright 2003, Gaussian, Inc.),
 the Gaussian(R) 98 system (copyright 1998, Gaussian, Inc.),
 the Gaussian(R) 94 system (copyright 1995, Gaussian, Inc.),
 the Gaussian 92(TM) system (copyright 1992, Gaussian, Inc.),
 the Gaussian 90(TM) system (copyright 1990, Gaussian, Inc.),
 the Gaussian 88(TM) system (copyright 1988, Gaussian, Inc.),
 the Gaussian 86(TM) system (copyright 1986, Carnegie Mellon
 University), and the Gaussian 82(TM) system (copyright 1983,
 Carnegie Mellon University). Gaussian is a federally registered
 trademark of Gaussian, Inc.
  
 This software contains proprietary and confidential information,
 including trade secrets, belonging to Gaussian, Inc.
  
 This software is provided under written license and may be
 used, copied, transmitted, or stored only in accord with that
 written license.
  
 The following legend is applicable only to US Government
 contracts under FAR:
  
                    RESTRICTED RIGHTS LEGEND
  
 Use, reproduction and disclosure by the US Government is
 subject to restrictions as set forth in subparagraphs (a)
 and (c) of the Commercial Computer Software - Restricted
 Rights clause in FAR 52.227-19.
  
 Gaussian, Inc.
 340 Quinnipiac St., Bldg. 40, Wallingford CT 06492
  
  
 ---------------------------------------------------------------
 Warning -- This program may not be used in any manner that
 competes with the business of Gaussian, Inc. or will provide
 assistance to any competitor of Gaussian, Inc.  The licensee
 of this program is prohibited from giving any competitor of
 Gaussian, Inc. access to this program.  By using this program,
 the user acknowledges that Gaussian, Inc. is engaged in the
 business of creating and licensing software in the field of
 computational chemistry and represents and warrants to the
 licensee that it is not a competitor of Gaussian, Inc. and that
 it will not use this program in any manner prohibited above.
 ---------------------------------------------------------------
  

 Cite this work as:
 Gaussian 09, Revision D.01,
 M. J. Frisch, G. W. Trucks, H. B. Schlegel, G. E. Scuseria, 
 M. A. Robb, J. R. Cheeseman, G. Scalmani, V. Barone, B. Mennucci, 
 G. A. Petersson, H. Nakatsuji, M. Caricato, X. Li, H. P. Hratchian, 
 A. F. Izmaylov, J. Bloino, G. Zheng, J. L. Sonnenberg, M. Hada, 
 M. Ehara, K. Toyota, R. Fukuda, J. Hasegawa, M. Ishida, T. Nakajima, 
 Y. Honda, O. Kitao, H. Nakai, T. Vreven, J. A. Montgomery, Jr., 
 J. E. Peralta, F. Ogliaro, M. Bearpark, J. J. Heyd, E. Brothers, 
 K. N. Kudin, V. N. Staroverov, T. Keith, R. Kobayashi, J. Normand, 
 K. Raghavachari, A. Rendell, J. C. Burant, S. S. Iyengar, J. Tomasi, 
 M. Cossi, N. Rega, J. M. Millam, M. Klene, J. E. Knox, J. B. Cross, 
 V. Bakken, C. Adamo, J. Jaramillo, R. Gomperts, R. E. Stratmann, 
 O. Yazyev, A. J. Austin, R. Cammi, C. Pomelli, J. W. Ochterski, 
 R. L. Martin, K. Morokuma, V. G. Zakrzewski, G. A. Voth, 
 P. Salvador, J. J. Dannenberg, S. Dapprich, A. D. Daniels, 
 O. Farkas, J. B. Foresman, J. V. Ortiz, J. Cioslowski, 
 and D. J. Fox, Gaussian, Inc., Wallingford CT, 2013.
 
 ******************************************
 Gaussian 09:  IA32W-G09RevD.01 24-Apr-2013
                14-Jun-2026 
 ******************************************
 %nprocshared=4
 Will use up to    4 processors via shared memory.
 %mem=1GB
 %chk=G:\Education Materials\GitHub Repositories\dft-analysis-cid-545295\545295_C
 EM.chk
 -----------------------------------------------
 # opt freq b3lyp/6-311+g(d,p) geom=connectivity
 -----------------------------------------------
 1/14=-1,18=20,19=15,26=3,38=1,57=2/1,3;
 2/9=110,12=2,17=6,18=5,40=1/2;
 3/5=4,6=6,7=111,11=2,16=1,25=1,30=1,71=1,74=-5/1,2,3;
 4//1;
 5/5=2,38=5/2;
 6/7=2,8=2,9=2,10=2,28=1/1;
 7//1,2,3,16;
 1/14=-1,18=20,19=15,26=3/3(2);
 2/9=110/2;
 99//99;
 2/9=110/2;
 3/5=4,6=6,7=111,11=2,16=1,25=1,30=1,71=1,74=-5/1,2,3;
 4/5=5,16=3,69=1/1;
 5/5=2,38=5/2;
 7//1,2,3,16;
 1/14=-1,18=20,19=15,26=3/3(-5);
 2/9=110/2;
 6/7=2,8=2,9=2,10=2,19=2,28=1/1;
 99/9=1/99;
 ----------
 545295_opt
 ----------
 Symbolic Z-matrix:
 Charge =  0 Multiplicity = 1
 O                     3.151    -0.6958    0.74 
 C                     2.7846   -0.1545   -0.5448 
 C                    -1.1903    0.1616   -0.0238 
 C                     1.2738    0.0295   -0.9227 
 C                     0.3204    0.0013    0.2893 
 C                     3.4684    0.6962    0.5867 
 C                    -1.4908    1.5158   -0.6977 
 C                    -1.7108   -0.9786   -0.9226 
 C                    -1.9566    0.1082    1.3137 
 H                     3.4473   -0.4165   -1.3946 
 H                     1.176     0.9813   -1.4437 
 H                     1.0083   -0.7694   -1.614 
 H                     0.6127    0.7992    0.973 
 H                     0.4641   -0.9473    0.8093 
 H                     4.5354    0.9484    0.4246 
 H                     2.8193    1.4195    1.1184 
 H                    -1.1002    2.3325   -0.0891 
 H                    -1.0356    1.5613   -1.6871 
 H                    -2.5678    1.6468   -0.8118 
 H                    -2.7926   -0.8996   -1.0393 
 H                    -1.4755   -1.9455   -0.4758 
 H                    -1.2572   -0.9248   -1.9122 
 H                    -1.6252    0.9141    1.9702 
 H                    -3.0283    0.2176    1.1408 
 H                    -1.7791   -0.8462    1.8116 
 

 GradGradGradGradGradGradGradGradGradGradGradGradGradGradGradGradGradGrad
 Berny optimization.
 Initialization pass.
                           ----------------------------
                           !    Initial Parameters    !
                           ! (Angstroms and Degrees)  !
 --------------------------                            --------------------------
 ! Name  Definition              Value          Derivative Info.                !
 --------------------------------------------------------------------------------
 ! R1    R(1,2)                  1.4415         estimate D2E/DX2                !
 ! R2    R(1,6)                  1.4359         estimate D2E/DX2                !
 ! R3    R(2,4)                  1.5682         estimate D2E/DX2                !
 ! R4    R(2,6)                  1.5721         estimate D2E/DX2                !
 ! R5    R(2,10)                 1.109          estimate D2E/DX2                !
 ! R6    R(3,5)                  1.5511         estimate D2E/DX2                !
 ! R7    R(3,7)                  1.5422         estimate D2E/DX2                !
 ! R8    R(3,8)                  1.5423         estimate D2E/DX2                !
 ! R9    R(3,9)                  1.5424         estimate D2E/DX2                !
 ! R10   R(4,5)                  1.5423         estimate D2E/DX2                !
 ! R11   R(4,11)                 1.0895         estimate D2E/DX2                !
 ! R12   R(4,12)                 1.0893         estimate D2E/DX2                !
 ! R13   R(5,13)                 1.0907         estimate D2E/DX2                !
 ! R14   R(5,14)                 1.0913         estimate D2E/DX2                !
 ! R15   R(6,15)                 1.1083         estimate D2E/DX2                !
 ! R16   R(6,16)                 1.1078         estimate D2E/DX2                !
 ! R17   R(7,17)                 1.0909         estimate D2E/DX2                !
 ! R18   R(7,18)                 1.09           estimate D2E/DX2                !
 ! R19   R(7,19)                 1.0909         estimate D2E/DX2                !
 ! R20   R(8,20)                 1.0909         estimate D2E/DX2                !
 ! R21   R(8,21)                 1.0908         estimate D2E/DX2                !
 ! R22   R(8,22)                 1.0899         estimate D2E/DX2                !
 ! R23   R(9,23)                 1.091          estimate D2E/DX2                !
 ! R24   R(9,24)                 1.0911         estimate D2E/DX2                !
 ! R25   R(9,25)                 1.091          estimate D2E/DX2                !
 ! A1    A(1,2,4)              120.2463         estimate D2E/DX2                !
 ! A2    A(1,2,10)             116.2541         estimate D2E/DX2                !
 ! A3    A(4,2,6)              121.9371         estimate D2E/DX2                !
 ! A4    A(4,2,10)             114.7555         estimate D2E/DX2                !
 ! A5    A(6,2,10)             114.7979         estimate D2E/DX2                !
 ! A6    A(5,3,7)              111.6376         estimate D2E/DX2                !
 ! A7    A(5,3,8)              111.7103         estimate D2E/DX2                !
 ! A8    A(5,3,9)              107.774          estimate D2E/DX2                !
 ! A9    A(7,3,8)              109.1928         estimate D2E/DX2                !
 ! A10   A(7,3,9)              108.2114         estimate D2E/DX2                !
 ! A11   A(8,3,9)              108.1845         estimate D2E/DX2                !
 ! A12   A(2,4,5)              113.8304         estimate D2E/DX2                !
 ! A13   A(2,4,11)             107.712          estimate D2E/DX2                !
 ! A14   A(2,4,12)             107.5591         estimate D2E/DX2                !
 ! A15   A(5,4,11)             109.6505         estimate D2E/DX2                !
 ! A16   A(5,4,12)             109.5499         estimate D2E/DX2                !
 ! A17   A(11,4,12)            108.3824         estimate D2E/DX2                !
 ! A18   A(3,5,4)              116.2025         estimate D2E/DX2                !
 ! A19   A(3,5,13)             108.177          estimate D2E/DX2                !
 ! A20   A(3,5,14)             108.3166         estimate D2E/DX2                !
 ! A21   A(4,5,13)             108.2745         estimate D2E/DX2                !
 ! A22   A(4,5,14)             107.9958         estimate D2E/DX2                !
 ! A23   A(13,5,14)            107.5736         estimate D2E/DX2                !
 ! A24   A(1,6,15)             116.6798         estimate D2E/DX2                !
 ! A25   A(1,6,16)             116.8841         estimate D2E/DX2                !
 ! A26   A(2,6,15)             115.8874         estimate D2E/DX2                !
 ! A27   A(2,6,16)             116.3525         estimate D2E/DX2                !
 ! A28   A(15,6,16)            119.0598         estimate D2E/DX2                !
 ! A29   A(3,7,17)             110.112          estimate D2E/DX2                !
 ! A30   A(3,7,18)             110.6047         estimate D2E/DX2                !
 ! A31   A(3,7,19)             110.0913         estimate D2E/DX2                !
 ! A32   A(17,7,18)            109.0032         estimate D2E/DX2                !
 ! A33   A(17,7,19)            108.7808         estimate D2E/DX2                !
 ! A34   A(18,7,19)            108.1993         estimate D2E/DX2                !
 ! A35   A(3,8,20)             110.0872         estimate D2E/DX2                !
 ! A36   A(3,8,21)             110.1081         estimate D2E/DX2                !
 ! A37   A(3,8,22)             110.6199         estimate D2E/DX2                !
 ! A38   A(20,8,21)            108.7782         estimate D2E/DX2                !
 ! A39   A(20,8,22)            108.179          estimate D2E/DX2                !
 ! A40   A(21,8,22)            109.0186         estimate D2E/DX2                !
 ! A41   A(3,9,23)             110.201          estimate D2E/DX2                !
 ! A42   A(3,9,24)             110.3113         estimate D2E/DX2                !
 ! A43   A(3,9,25)             110.194          estimate D2E/DX2                !
 ! A44   A(23,9,24)            108.6423         estimate D2E/DX2                !
 ! A45   A(23,9,25)            108.7932         estimate D2E/DX2                !
 ! A46   A(24,9,25)            108.6535         estimate D2E/DX2                !
 ! D1    D(1,2,4,5)             17.4956         estimate D2E/DX2                !
 ! D2    D(1,2,4,11)           139.2972         estimate D2E/DX2                !
 ! D3    D(1,2,4,12)          -104.0689         estimate D2E/DX2                !
 ! D4    D(6,2,4,5)            -49.849          estimate D2E/DX2                !
 ! D5    D(6,2,4,11)            71.9526         estimate D2E/DX2                !
 ! D6    D(6,2,4,12)          -171.4134         estimate D2E/DX2                !
 ! D7    D(10,2,4,5)           163.8788         estimate D2E/DX2                !
 ! D8    D(10,2,4,11)          -74.3196         estimate D2E/DX2                !
 ! D9    D(10,2,4,12)           42.3143         estimate D2E/DX2                !
 ! D10   D(4,2,6,15)          -146.2213         estimate D2E/DX2                !
 ! D11   D(4,2,6,16)             1.2283         estimate D2E/DX2                !
 ! D12   D(10,2,6,15)            0.0379         estimate D2E/DX2                !
 ! D13   D(10,2,6,16)          147.4874         estimate D2E/DX2                !
 ! D14   D(7,3,5,4)            -61.1983         estimate D2E/DX2                !
 ! D15   D(7,3,5,13)            60.768          estimate D2E/DX2                !
 ! D16   D(7,3,5,14)           177.0917         estimate D2E/DX2                !
 ! D17   D(8,3,5,4)             61.3911         estimate D2E/DX2                !
 ! D18   D(8,3,5,13)          -176.6426         estimate D2E/DX2                !
 ! D19   D(8,3,5,14)           -60.3188         estimate D2E/DX2                !
 ! D20   D(9,3,5,4)           -179.8989         estimate D2E/DX2                !
 ! D21   D(9,3,5,13)           -57.9326         estimate D2E/DX2                !
 ! D22   D(9,3,5,14)            58.3911         estimate D2E/DX2                !
 ! D23   D(5,3,7,17)           -54.1843         estimate D2E/DX2                !
 ! D24   D(5,3,7,18)            66.3556         estimate D2E/DX2                !
 ! D25   D(5,3,7,19)          -174.119          estimate D2E/DX2                !
 ! D26   D(8,3,7,17)          -178.2029         estimate D2E/DX2                !
 ! D27   D(8,3,7,18)           -57.663          estimate D2E/DX2                !
 ! D28   D(8,3,7,19)            61.8624         estimate D2E/DX2                !
 ! D29   D(9,3,7,17)            64.2554         estimate D2E/DX2                !
 ! D30   D(9,3,7,18)          -175.2047         estimate D2E/DX2                !
 ! D31   D(9,3,7,19)           -55.6794         estimate D2E/DX2                !
 ! D32   D(5,3,8,20)           174.0284         estimate D2E/DX2                !
 ! D33   D(5,3,8,21)            54.102          estimate D2E/DX2                !
 ! D34   D(5,3,8,22)           -66.4644         estimate D2E/DX2                !
 ! D35   D(7,3,8,20)           -61.9958         estimate D2E/DX2                !
 ! D36   D(7,3,8,21)           178.0778         estimate D2E/DX2                !
 ! D37   D(7,3,8,22)            57.5113         estimate D2E/DX2                !
 ! D38   D(9,3,8,20)            55.5629         estimate D2E/DX2                !
 ! D39   D(9,3,8,21)           -64.3635         estimate D2E/DX2                !
 ! D40   D(9,3,8,22)           175.07           estimate D2E/DX2                !
 ! D41   D(5,3,9,23)            60.0344         estimate D2E/DX2                !
 ! D42   D(5,3,9,24)           179.9937         estimate D2E/DX2                !
 ! D43   D(5,3,9,25)           -60.0375         estimate D2E/DX2                !
 ! D44   D(7,3,9,23)           -60.8363         estimate D2E/DX2                !
 ! D45   D(7,3,9,24)            59.123          estimate D2E/DX2                !
 ! D46   D(7,3,9,25)           179.0918         estimate D2E/DX2                !
 ! D47   D(8,3,9,23)          -179.0232         estimate D2E/DX2                !
 ! D48   D(8,3,9,24)           -59.0639         estimate D2E/DX2                !
 ! D49   D(8,3,9,25)            60.9049         estimate D2E/DX2                !
 ! D50   D(2,4,5,3)           -179.2968         estimate D2E/DX2                !
 ! D51   D(2,4,5,13)            58.7883         estimate D2E/DX2                !
 ! D52   D(2,4,5,14)           -57.4172         estimate D2E/DX2                !
 ! D53   D(11,4,5,3)            59.9813         estimate D2E/DX2                !
 ! D54   D(11,4,5,13)          -61.9336         estimate D2E/DX2                !
 ! D55   D(11,4,5,14)         -178.1391         estimate D2E/DX2                !
 ! D56   D(12,4,5,3)           -58.8442         estimate D2E/DX2                !
 ! D57   D(12,4,5,13)          179.241          estimate D2E/DX2                !
 ! D58   D(12,4,5,14)           63.0354         estimate D2E/DX2                !
 --------------------------------------------------------------------------------
 Trust Radius=3.00D-01 FncErr=1.00D-07 GrdErr=1.00D-06
 Number of steps in this run=    139 maximum allowed number of steps=    150.
 GradGradGradGradGradGradGradGradGradGradGradGradGradGradGradGradGradGrad

                          Input orientation:                          
 ---------------------------------------------------------------------
 Center     Atomic      Atomic             Coordinates (Angstroms)
 Number     Number       Type             X           Y           Z
 ---------------------------------------------------------------------
      1          8           0        3.151000   -0.695800    0.740000
      2          6           0        2.784600   -0.154500   -0.544800
      3          6           0       -1.190300    0.161600   -0.023800
      4          6           0        1.273800    0.029500   -0.922700
      5          6           0        0.320400    0.001300    0.289300
      6          6           0        3.468400    0.696200    0.586700
      7          6           0       -1.490800    1.515800   -0.697700
      8          6           0       -1.710800   -0.978600   -0.922600
      9          6           0       -1.956600    0.108200    1.313700
     10          1           0        3.447300   -0.416500   -1.394600
     11          1           0        1.176000    0.981300   -1.443700
     12          1           0        1.008300   -0.769400   -1.614000
     13          1           0        0.612700    0.799200    0.973000
     14          1           0        0.464100   -0.947300    0.809300
     15          1           0        4.535400    0.948400    0.424600
     16          1           0        2.819300    1.419500    1.118400
     17          1           0       -1.100200    2.332500   -0.089100
     18          1           0       -1.035600    1.561300   -1.687100
     19          1           0       -2.567800    1.646800   -0.811800
     20          1           0       -2.792600   -0.899600   -1.039300
     21          1           0       -1.475500   -1.945500   -0.475800
     22          1           0       -1.257200   -0.924800   -1.912200
     23          1           0       -1.625200    0.914100    1.970200
     24          1           0       -3.028300    0.217600    1.140800
     25          1           0       -1.779100   -0.846200    1.811600
 ---------------------------------------------------------------------
                    Distance matrix (angstroms):
                    1          2          3          4          5
     1  O    0.000000
     2  C    1.441515   0.000000
     3  C    4.490591   4.021342   0.000000
     4  C    2.610462   1.568178   2.626264   0.000000
     5  C    2.949809   2.606200   1.551110   1.542307   0.000000
     6  C    1.435934   1.572121   4.728847   2.745732   3.237474
     7  C    5.338957   4.592638   1.542173   3.146860   2.558969
     8  C    5.146000   4.585902   1.542342   3.150254   2.560211
     9  C    5.202223   5.099217   1.542392   3.929779   2.499110
    10  H    2.173090   1.109043   4.870383   2.268415   3.575973
    11  H    3.388486   2.164638   2.878784   1.089463   2.166966
    12  H    3.184006   2.162529   2.868682   1.089324   2.165580
    13  H    2.955043   2.816098   2.156607   2.150156   1.090655
    14  H    2.699534   2.801221   2.158878   2.146992   1.091280
    15  H    2.172426   2.285044   5.796875   3.646591   4.322213
    16  H    2.174329   2.290178   4.354747   2.913204   2.990518
    17  H    5.284951   4.635138   2.173750   3.410949   2.756045
    18  H    5.339750   4.340823   2.179371   2.874726   2.859806
    19  H    6.371855   5.653685   2.173538   4.169634   3.501684
    20  H    6.207562   5.648439   2.173649   4.172821   3.502509
    21  H    4.944130   4.621785   2.173825   3.414527   2.756930
    22  H    5.149644   4.335815   2.179632   2.880236   2.862357
    23  H    5.188184   5.187819   2.175185   4.189939   2.728367
    24  H    6.259288   6.063787   2.176620   4.775089   3.462027
    25  H    5.047458   5.182512   2.175095   4.190876   2.728288
                    6          7          8          9         10
     6  C    0.000000
     7  C    5.187976   0.000000
     8  C    5.648633   2.514162   0.000000
     9  C    5.504988   2.498807   2.498517   0.000000
    10  H    2.272465   5.348297   5.210061   6.067317   0.000000
    11  H    3.075533   2.820289   3.527941   4.263653   2.667407
    12  H    3.611531   3.508168   2.813415   4.258197   2.474145
    13  H    2.883550   2.780192   3.486047   2.682324   3.888240
    14  H    3.431685   3.487054   2.780404   2.688548   3.746786
    15  H    1.108319   6.156020   6.674076   6.606247   2.521191
    16  H    1.107790   4.678082   5.517098   4.956498   3.174972
    17  H    4.899621   1.090853   3.468564   2.765643   5.471845
    18  H    5.119041   1.090041   2.737051   3.458980   4.908527
    19  H    6.268585   1.090921   2.763956   2.694180   6.385788
    20  H    6.662625   2.765055   1.090940   2.692799   6.268650
    21  H    5.705229   3.468439   1.090822   2.766126   5.236028
    22  H    5.586004   2.736075   1.089934   3.458711   4.760105
    23  H    5.282643   2.738210   3.458024   1.091006   6.230781
    24  H    6.537828   2.725676   2.724761   1.091056   6.983103
    25  H    5.604965   3.458142   2.738256   1.091004   6.146513
                   11         12         13         14         15
    11  H    0.000000
    12  H    1.766940   0.000000
    13  H    2.488153   3.051160   0.000000
    14  H    3.049969   2.490017   1.760438   0.000000
    15  H    3.844112   4.421217   3.963657   4.507456   0.000000
    16  H    3.075193   3.941702   2.296736   3.353245   1.910050
    17  H    2.973511   4.048812   2.532408   3.743160   5.825771
    18  H    2.299308   3.100812   3.220842   3.843720   5.989237
    19  H    3.854637   4.389765   3.744265   4.306941   7.243749
    20  H    4.410341   3.846306   4.304804   3.745089   7.697902
    21  H    4.066133   2.974554   3.740719   2.531785   6.731738
    22  H    3.126207   2.290319   3.846177   3.220239   6.521022
    23  H    4.416554   4.755627   2.452714   3.029467   6.351618
    24  H    4.993898   4.985703   3.690975   3.696450   7.632599
    25  H    4.761234   4.417039   3.021804   2.459019   6.709491
                   16         17         18         19         20
    16  H    0.000000
    17  H    4.201679   0.000000
    18  H    4.769821   1.775536   0.000000
    19  H    5.726970   1.773790   1.766663   0.000000
    20  H    6.444169   3.770089   3.092365   2.566407   0.000000
    21  H    5.684189   4.311806   3.736095   3.769700   1.773751
    22  H    5.594473   3.736087   2.506087   3.088961   1.766364
    23  H    4.553523   2.555034   3.760630   3.027353   3.702623
    24  H    5.969882   3.114968   3.711253   2.463193   2.461001
    25  H    5.172930   3.765329   4.311583   3.703961   3.026163
                   21         22         23         24         25
    21  H    0.000000
    22  H    1.775592   0.000000
    23  H    3.765984   4.311613   0.000000
    24  H    3.115058   3.709809   1.772486   0.000000
    25  H    2.555941   3.761016   1.774118   1.772609   0.000000
 Stoichiometry    C8H16O
 Framework group  C1[X(C8H16O)]
 Deg. of freedom    69
 Full point group                 C1      NOp   1
 Largest Abelian subgroup         C1      NOp   1
 Largest concise Abelian subgroup C1      NOp   1
                         Standard orientation:                         
 ---------------------------------------------------------------------
 Center     Atomic      Atomic             Coordinates (Angstroms)
 Number     Number       Type             X           Y           Z
 ---------------------------------------------------------------------
      1          8           0       -2.772721    0.486351   -0.800542
      2          6           0       -2.322468   -0.661166   -0.053251
      3          6           0        1.628266    0.087346   -0.002096
      4          6           0       -0.788844   -0.930877    0.132306
      5          6           0        0.098886    0.297699   -0.152735
      6          6           0       -3.035711    0.573774    0.608394
      7          6           0        2.007795   -0.315633    1.437301
      8          6           0        2.156899   -0.978841   -0.983222
      9          6           0        2.321903    1.426201   -0.326611
     10          1           0       -2.948415   -1.573408   -0.130583
     11          1           0       -0.632824   -1.265744    1.157221
     12          1           0       -0.514262   -1.742852   -0.539949
     13          1           0       -0.202083    1.100818    0.521021
     14          1           0       -0.102789    0.630093   -1.172407
     15          1           0       -4.083968    0.412095    0.929936
     16          1           0       -2.391626    1.256529    1.196781
     17          1           0        1.613231    0.412680    2.147118
     18          1           0        1.606333   -1.299909    1.678589
     19          1           0        3.092997   -0.355373    1.541547
     20          1           0        3.245314   -1.030345   -0.929821
     21          1           0        1.866996   -0.725809   -2.003920
     22          1           0        1.757317   -1.961736   -0.733808
     23          1           0        1.983584    2.202284    0.361522
     24          1           0        3.404157    1.324541   -0.232823
     25          1           0        2.087449    1.734307   -1.346607
 ---------------------------------------------------------------------
 Rotational constants (GHZ):      3.0613557      0.7591342      0.7436001
 Standard basis: 6-311+G(d,p) (5D, 7F)
 There are   303 symmetry adapted cartesian basis functions of A   symmetry.
 There are   294 symmetry adapted basis functions of A   symmetry.
   294 basis functions,   452 primitive gaussians,   303 cartesian basis functions
    36 alpha electrons       36 beta electrons
       nuclear repulsion energy       474.6315399404 Hartrees.
 NAtoms=   25 NActive=   25 NUniq=   25 SFac= 1.00D+00 NAtFMM=   60 NAOKFM=F Big=F
 Integral buffers will be    262144 words long.
 Raffenetti 2 integral format.
 Two-electron integral symmetry is turned on.
 One-electron integrals computed using PRISM.
 NBasis=   294 RedAO= T EigKep=  7.25D-06  NBF=   294
 NBsUse=   294 1.00D-06 EigRej= -1.00D+00 NBFU=   294
 ExpMin= 4.38D-02 ExpMax= 8.59D+03 ExpMxC= 1.30D+03 IAcc=2 IRadAn=         4 AccDes= 0.00D+00
 Harris functional with IExCor=  402 and IRadAn=       4 diagonalized for initial guess.
 HarFok:  IExCor=  402 AccDes= 0.00D+00 IRadAn=         4 IDoV= 1 UseB2=F ITyADJ=14
 ICtDFT=  3500011 ScaDFX=  1.000000  1.000000  1.000000  1.000000
 FoFCou: FMM=F IPFlag=           0 FMFlag=      100000 FMFlg1=           0
         NFxFlg=           0 DoJE=T BraDBF=F KetDBF=T FulRan=T
         wScrn=  0.000000 ICntrl=     500 IOpCl=  0 I1Cent=   200000004 NGrid=           0
         NMat0=    1 NMatS0=      1 NMatT0=    0 NMatD0=    1 NMtDS0=    0 NMtDT0=    0
 Petite list used in FoFCou.
 Requested convergence on RMS density matrix=1.00D-08 within 128 cycles.
 Requested convergence on MAX density matrix=1.00D-06.
 Requested convergence on             energy=1.00D-06.
 No special actions if energy rises.
 SCF Done:  E(RB3LYP) =  -389.775561830     A.U. after   12 cycles
            NFock= 12  Conv=0.68D-08     -V/T= 2.0054

 **********************************************************************

            Population analysis using the SCF density.

 **********************************************************************

 Orbital symmetries:
       Occupied  (A) (A) (A) (A) (A) (A) (A) (A) (A) (A) (A) (A)
                 (A) (A) (A) (A) (A) (A) (A) (A) (A) (A) (A) (A)
                 (A) (A) (A) (A) (A) (A) (A) (A) (A) (A) (A) (A)
       Virtual   (A) (A) (A) (A) (A) (A) (A) (A) (A) (A) (A) (A)
                 (A) (A) (A) (A) (A) (A) (A) (A) (A) (A) (A) (A)
                 (A) (A) (A) (A) (A) (A) (A) (A) (A) (A) (A) (A)
                 (A) (A) (A) (A) (A) (A) (A) (A) (A) (A) (A) (A)
                 (A) (A) (A) (A) (A) (A) (A) (A) (A) (A) (A) (A)
                 (A) (A) (A) (A) (A) (A) (A) (A) (A) (A) (A) (A)
                 (A) (A) (A) (A) (A) (A) (A) (A) (A) (A) (A) (A)
                 (A) (A) (A) (A) (A) (A) (A) (A) (A) (A) (A) (A)
                 (A) (A) (A) (A) (A) (A) (A) (A) (A) (A) (A) (A)
                 (A) (A) (A) (A) (A) (A) (A) (A) (A) (A) (A) (A)
                 (A) (A) (A) (A) (A) (A) (A) (A) (A) (A) (A) (A)
                 (A) (A) (A) (A) (A) (A) (A) (A) (A) (A) (A) (A)
                 (A) (A) (A) (A) (A) (A) (A) (A) (A) (A) (A) (A)
                 (A) (A) (A) (A) (A) (A) (A) (A) (A) (A) (A) (A)
                 (A) (A) (A) (A) (A) (A) (A) (A) (A) (A) (A) (A)
                 (A) (A) (A) (A) (A) (A) (A) (A) (A) (A) (A) (A)
                 (A) (A) (A) (A) (A) (A) (A) (A) (A) (A) (A) (A)
                 (A) (A) (A) (A) (A) (A) (A) (A) (A) (A) (A) (A)
                 (A) (A) (A) (A) (A) (A) (A) (A) (A) (A) (A) (A)
                 (A) (A) (A) (A) (A) (A) (A) (A) (A) (A) (A) (A)
                 (A) (A) (A) (A) (A) (A) (A) (A) (A) (A) (A) (A)
                 (A) (A) (A) (A) (A) (A)
 The electronic state is 1-A.
 Alpha  occ. eigenvalues --  -19.14343 -10.23922 -10.23073 -10.18407 -10.17883
 Alpha  occ. eigenvalues --  -10.16565 -10.15765 -10.15678 -10.15521  -1.06864
 Alpha  occ. eigenvalues --   -0.82996  -0.76071  -0.68866  -0.68748  -0.66914
 Alpha  occ. eigenvalues --   -0.64872  -0.58379  -0.53378  -0.50059  -0.47424
 Alpha  occ. eigenvalues --   -0.46478  -0.45252  -0.43983  -0.43388  -0.41471
 Alpha  occ. eigenvalues --   -0.39479  -0.38784  -0.38197  -0.36946  -0.35901
 Alpha  occ. eigenvalues --   -0.35777  -0.32362  -0.31956  -0.31679  -0.28470
 Alpha  occ. eigenvalues --   -0.27837
 Alpha virt. eigenvalues --   -0.00150   0.00965   0.01458   0.02320   0.03301
 Alpha virt. eigenvalues --    0.03435   0.03670   0.04538   0.05037   0.06052
 Alpha virt. eigenvalues --    0.06416   0.06612   0.06976   0.07422   0.08898
 Alpha virt. eigenvalues --    0.09206   0.09986   0.10202   0.10552   0.11487
 Alpha virt. eigenvalues --    0.11824   0.12926   0.13414   0.13629   0.14344
 Alpha virt. eigenvalues --    0.14790   0.15488   0.16490   0.16603   0.16699
 Alpha virt. eigenvalues --    0.17411   0.17975   0.18540   0.19706   0.20363
 Alpha virt. eigenvalues --    0.20874   0.21323   0.21961   0.22140   0.22578
 Alpha virt. eigenvalues --    0.23102   0.24244   0.24276   0.24546   0.25182
 Alpha virt. eigenvalues --    0.25685   0.25922   0.26416   0.27093   0.27819
 Alpha virt. eigenvalues --    0.28762   0.29538   0.30076   0.31358   0.31591
 Alpha virt. eigenvalues --    0.32117   0.33008   0.34339   0.35052   0.38260
 Alpha virt. eigenvalues --    0.39653   0.41139   0.42793   0.44540   0.45414
 Alpha virt. eigenvalues --    0.45771   0.46841   0.48642   0.49402   0.51885
 Alpha virt. eigenvalues --    0.53484   0.53884   0.54644   0.54866   0.55937
 Alpha virt. eigenvalues --    0.58121   0.59271   0.61150   0.61761   0.62300
 Alpha virt. eigenvalues --    0.63086   0.63318   0.63865   0.64249   0.65440
 Alpha virt. eigenvalues --    0.66481   0.67526   0.67737   0.68970   0.69901
 Alpha virt. eigenvalues --    0.70217   0.71404   0.71764   0.73668   0.74970
 Alpha virt. eigenvalues --    0.76114   0.76671   0.78720   0.79873   0.82135
 Alpha virt. eigenvalues --    0.82989   0.86411   0.87556   0.93053   0.96682
 Alpha virt. eigenvalues --    0.98547   1.01270   1.04818   1.05119   1.10110
 Alpha virt. eigenvalues --    1.11204   1.13205   1.14959   1.15812   1.18935
 Alpha virt. eigenvalues --    1.20590   1.21991   1.24296   1.27228   1.34019
 Alpha virt. eigenvalues --    1.36451   1.37818   1.40684   1.42877   1.44108
 Alpha virt. eigenvalues --    1.45277   1.45919   1.46913   1.47896   1.48921
 Alpha virt. eigenvalues --    1.49328   1.50890   1.51029   1.53089   1.55512
 Alpha virt. eigenvalues --    1.56128   1.56793   1.58195   1.59684   1.61605
 Alpha virt. eigenvalues --    1.63829   1.64201   1.65126   1.65312   1.66288
 Alpha virt. eigenvalues --    1.66910   1.68021   1.69248   1.71098   1.73069
 Alpha virt. eigenvalues --    1.74422   1.74744   1.75379   1.76793   1.78706
 Alpha virt. eigenvalues --    1.81382   1.81659   1.83860   1.87480   1.89574
 Alpha virt. eigenvalues --    1.91510   1.96028   1.97749   1.99015   2.00137
 Alpha virt. eigenvalues --    2.00332   2.05260   2.08612   2.09262   2.10581
 Alpha virt. eigenvalues --    2.11271   2.14036   2.16620   2.18460   2.20349
 Alpha virt. eigenvalues --    2.20799   2.24071   2.27585   2.29262   2.32248
 Alpha virt. eigenvalues --    2.40067   2.40545   2.42136   2.43281   2.44914
 Alpha virt. eigenvalues --    2.47623   2.50916   2.51184   2.52413   2.52584
 Alpha virt. eigenvalues --    2.52957   2.53947   2.54524   2.56297   2.56478
 Alpha virt. eigenvalues --    2.57809   2.58536   2.58866   2.60373   2.61903
 Alpha virt. eigenvalues --    2.64445   2.67389   2.69298   2.71678   2.73074
 Alpha virt. eigenvalues --    2.73519   2.74482   2.75237   2.76860   2.79400
 Alpha virt. eigenvalues --    2.81121   2.82346   2.83356   2.86292   2.87088
 Alpha virt. eigenvalues --    2.92464   2.97106   3.03163   3.08290   3.09776
 Alpha virt. eigenvalues --    3.11526   3.14434   3.16178   3.20766   3.22416
 Alpha virt. eigenvalues --    3.25029   3.25742   3.38809   3.61758   3.63306
 Alpha virt. eigenvalues --    3.69207   3.77731   3.78500   3.79795   3.80746
 Alpha virt. eigenvalues --    3.83126   3.84588   3.86275   3.87706   3.89175
 Alpha virt. eigenvalues --    3.98504   4.13912   4.27811   4.27842   4.34450
 Alpha virt. eigenvalues --    4.46886   5.10819   5.51015   5.53518  23.71041
 Alpha virt. eigenvalues --   23.78269  23.81954  23.88550  23.91897  23.97392
 Alpha virt. eigenvalues --   23.98345  23.98894  49.89249
          Condensed to atoms (all electrons):
               1          2          3          4          5          6
     1  O    7.982454   0.305544   0.019020  -0.226766   0.074612   0.082677
     2  C    0.305544   6.848350   0.033797  -0.801460   0.209466  -0.658560
     3  C    0.019020   0.033797   5.857736   0.082387  -0.739435   0.005411
     4  C   -0.226766  -0.801460   0.082387   6.773584  -0.433792   0.089391
     5  C    0.074612   0.209466  -0.739435  -0.433792   6.707573  -0.073837
     6  C    0.082677  -0.658560   0.005411   0.089391  -0.073837   6.054622
     7  C    0.004986   0.078475   0.445402  -0.014178  -0.229027  -0.011401
     8  C   -0.004317  -0.034230   0.307037   0.103508  -0.157788   0.007780
     9  C   -0.009752  -0.045746  -0.150593  -0.107219   0.309696   0.000084
    10  H   -0.032526   0.384337   0.001610  -0.081771   0.008587   0.023939
    11  H    0.009540  -0.033515   0.017289   0.450395  -0.092011  -0.025922
    12  H   -0.005186  -0.011374  -0.027675   0.374997  -0.007984   0.012133
    13  H   -0.004217   0.004044   0.007534  -0.057260   0.384540   0.004563
    14  H    0.002621  -0.007695   0.014814  -0.037920   0.402095  -0.002400
    15  H   -0.041969   0.044865   0.002293  -0.038464   0.007653   0.357038
    16  H   -0.037318  -0.049073  -0.002749   0.072001   0.007442   0.337912
    17  H   -0.000012  -0.002529  -0.015601   0.000753  -0.009321  -0.000210
    18  H   -0.000044  -0.001110  -0.003009   0.019260  -0.045532   0.000905
    19  H    0.000015   0.000863  -0.057657  -0.005319   0.043921  -0.000178
    20  H    0.000009   0.000801  -0.062774  -0.005041   0.049768   0.000085
    21  H   -0.000003  -0.002198  -0.007255   0.002171  -0.015147  -0.000192
    22  H   -0.000056   0.008657  -0.003179   0.005679  -0.042920  -0.000535
    23  H    0.000035  -0.000085   0.023468   0.002054  -0.043947   0.000055
    24  H    0.000014   0.000393  -0.090206  -0.002532   0.068318  -0.000047
    25  H    0.000002  -0.000428   0.013990   0.002635  -0.040265   0.000017
               7          8          9         10         11         12
     1  O    0.004986  -0.004317  -0.009752  -0.032526   0.009540  -0.005186
     2  C    0.078475  -0.034230  -0.045746   0.384337  -0.033515  -0.011374
     3  C    0.445402   0.307037  -0.150593   0.001610   0.017289  -0.027675
     4  C   -0.014178   0.103508  -0.107219  -0.081771   0.450395   0.374997
     5  C   -0.229027  -0.157788   0.309696   0.008587  -0.092011  -0.007984
     6  C   -0.011401   0.007780   0.000084   0.023939  -0.025922   0.012133
     7  C    5.553070  -0.283405  -0.223203   0.001404   0.005414   0.007182
     8  C   -0.283405   5.505074  -0.118431   0.000069   0.000781  -0.007525
     9  C   -0.223203  -0.118431   5.653514  -0.001018  -0.004584   0.004651
    10  H    0.001404   0.000069  -0.001018   0.543073   0.004481  -0.006453
    11  H    0.005414   0.000781  -0.004584   0.004481   0.554660  -0.038946
    12  H    0.007182  -0.007525   0.004651  -0.006453  -0.038946   0.560484
    13  H   -0.015985   0.015796  -0.008198   0.000046  -0.007414   0.007386
    14  H    0.014604  -0.024795  -0.010315   0.000130   0.006619  -0.006322
    15  H    0.000940  -0.000311  -0.000737   0.002570   0.001045  -0.000237
    16  H   -0.003502   0.001330   0.004364  -0.000524  -0.000642   0.000012
    17  H    0.384071   0.018328  -0.003777  -0.000001   0.000056   0.000041
    18  H    0.379641   0.007974   0.011072   0.000011   0.000374  -0.000768
    19  H    0.418001  -0.020271  -0.007600   0.000000   0.000239  -0.000131
    20  H   -0.021955   0.415272  -0.004722  -0.000002  -0.000113   0.000334
    21  H    0.020732   0.376969  -0.003714   0.000000   0.000092   0.000331
    22  H    0.004595   0.389722   0.007443   0.000022  -0.000681   0.001167
    23  H   -0.020653   0.031464   0.377230   0.000001   0.000007   0.000002
    24  H   -0.021558  -0.023517   0.438617   0.000000  -0.000004  -0.000003
    25  H    0.029834  -0.023096   0.388257   0.000002   0.000013  -0.000030
              13         14         15         16         17         18
     1  O   -0.004217   0.002621  -0.041969  -0.037318  -0.000012  -0.000044
     2  C    0.004044  -0.007695   0.044865  -0.049073  -0.002529  -0.001110
     3  C    0.007534   0.014814   0.002293  -0.002749  -0.015601  -0.003009
     4  C   -0.057260  -0.037920  -0.038464   0.072001   0.000753   0.019260
     5  C    0.384540   0.402095   0.007653   0.007442  -0.009321  -0.045532
     6  C    0.004563  -0.002400   0.357038   0.337912  -0.000210   0.000905
     7  C   -0.015985   0.014604   0.000940  -0.003502   0.384071   0.379641
     8  C    0.015796  -0.024795  -0.000311   0.001330   0.018328   0.007974
     9  C   -0.008198  -0.010315  -0.000737   0.004364  -0.003777   0.011072
    10  H    0.000046   0.000130   0.002570  -0.000524  -0.000001   0.000011
    11  H   -0.007414   0.006619   0.001045  -0.000642   0.000056   0.000374
    12  H    0.007386  -0.006322  -0.000237   0.000012   0.000041  -0.000768
    13  H    0.564758  -0.027263   0.000236   0.001818   0.001552  -0.000561
    14  H   -0.027263   0.508436  -0.000068   0.000501   0.000192  -0.000231
    15  H    0.000236  -0.000068   0.559599  -0.041465  -0.000001  -0.000002
    16  H    0.001818   0.000501  -0.041465   0.563827   0.000036   0.000057
    17  H    0.001552   0.000192  -0.000001   0.000036   0.542373  -0.028999
    18  H   -0.000561  -0.000231  -0.000002   0.000057  -0.028999   0.557496
    19  H   -0.000250  -0.000335   0.000000  -0.000002  -0.026471  -0.027335
    20  H   -0.000376  -0.000195   0.000000  -0.000001   0.000066  -0.000349
    21  H    0.000273   0.001372   0.000000  -0.000002  -0.000596   0.000115
    22  H   -0.000335  -0.000684   0.000000  -0.000005   0.000119   0.002479
    23  H    0.002639  -0.001067   0.000002  -0.000048   0.002601   0.000035
    24  H    0.000116  -0.000003   0.000000  -0.000001  -0.000497   0.000047
    25  H   -0.000845   0.002065   0.000000  -0.000005  -0.000002  -0.000575
              19         20         21         22         23         24
     1  O    0.000015   0.000009  -0.000003  -0.000056   0.000035   0.000014
     2  C    0.000863   0.000801  -0.002198   0.008657  -0.000085   0.000393
     3  C   -0.057657  -0.062774  -0.007255  -0.003179   0.023468  -0.090206
     4  C   -0.005319  -0.005041   0.002171   0.005679   0.002054  -0.002532
     5  C    0.043921   0.049768  -0.015147  -0.042920  -0.043947   0.068318
     6  C   -0.000178   0.000085  -0.000192  -0.000535   0.000055  -0.000047
     7  C    0.418001  -0.021955   0.020732   0.004595  -0.020653  -0.021558
     8  C   -0.020271   0.415272   0.376969   0.389722   0.031464  -0.023517
     9  C   -0.007600  -0.004722  -0.003714   0.007443   0.377230   0.438617
    10  H    0.000000  -0.000002   0.000000   0.000022   0.000001   0.000000
    11  H    0.000239  -0.000113   0.000092  -0.000681   0.000007  -0.000004
    12  H   -0.000131   0.000334   0.000331   0.001167   0.000002  -0.000003
    13  H   -0.000250  -0.000376   0.000273  -0.000335   0.002639   0.000116
    14  H   -0.000335  -0.000195   0.001372  -0.000684  -0.001067  -0.000003
    15  H    0.000000   0.000000   0.000000   0.000000   0.000002   0.000000
    16  H   -0.000002  -0.000001  -0.000002  -0.000005  -0.000048  -0.000001
    17  H   -0.026471   0.000066  -0.000596   0.000119   0.002601  -0.000497
    18  H   -0.027335  -0.000349   0.000115   0.002479   0.000035   0.000047
    19  H    0.540871   0.002162   0.000040  -0.000346  -0.000348   0.002091
    20  H    0.002162   0.542515  -0.026122  -0.028263   0.000113   0.001954
    21  H    0.000040  -0.026122   0.538060  -0.028310  -0.000012  -0.000498
    22  H   -0.000346  -0.028263  -0.028310   0.557158  -0.000575   0.000080
    23  H   -0.000348   0.000113  -0.000012  -0.000575   0.547184  -0.027700
    24  H    0.002091   0.001954  -0.000498   0.000080  -0.027700   0.545446
    25  H    0.000129  -0.000455   0.002706   0.000065  -0.027228  -0.027484
              25
     1  O    0.000002
     2  C   -0.000428
     3  C    0.013990
     4  C    0.002635
     5  C   -0.040265
     6  C    0.000017
     7  C    0.029834
     8  C   -0.023096
     9  C    0.388257
    10  H    0.000002
    11  H    0.000013
    12  H   -0.000030
    13  H   -0.000845
    14  H    0.002065
    15  H    0.000000
    16  H   -0.000005
    17  H   -0.000002
    18  H   -0.000575
    19  H    0.000129
    20  H   -0.000455
    21  H    0.002706
    22  H    0.000065
    23  H   -0.027228
    24  H   -0.027484
    25  H    0.541542
 Mulliken charges:
               1
     1  O   -0.119363
     2  C   -0.271590
     3  C    0.328346
     4  C   -0.167093
     5  C   -0.342663
     6  C   -0.203330
     7  C   -0.503486
     8  C   -0.483420
     9  C   -0.495317
    10  H    0.152013
    11  H    0.152827
    12  H    0.143913
    13  H    0.127400
    14  H    0.165844
    15  H    0.147014
    16  H    0.146035
    17  H    0.137828
    18  H    0.129050
    19  H    0.137913
    20  H    0.137290
    21  H    0.141185
    22  H    0.128703
    23  H    0.134770
    24  H    0.136974
    25  H    0.139158
 Sum of Mulliken charges =   0.00000
 Mulliken charges with hydrogens summed into heavy atoms:
               1
     1  O   -0.119363
     2  C   -0.119577
     3  C    0.328346
     4  C    0.129647
     5  C   -0.049419
     6  C    0.089719
     7  C   -0.098695
     8  C   -0.076242
     9  C   -0.084416
 Electronic spatial extent (au):  <R**2>=           1721.3326
 Charge=              0.0000 electrons
 Dipole moment (field-independent basis, Debye):
    X=              0.5313    Y=             -0.9088    Z=              1.5989  Tot=              1.9143
 Quadrupole moment (field-independent basis, Debye-Ang):
   XX=            -60.3219   YY=            -59.1597   ZZ=            -61.0552
   XY=              2.3622   XZ=             -5.2556   YZ=              1.9613
 Traceless Quadrupole moment (field-independent basis, Debye-Ang):
   XX=             -0.1430   YY=              1.0192   ZZ=             -0.8763
   XY=              2.3622   XZ=             -5.2556   YZ=              1.9613
 Octapole moment (field-independent basis, Debye-Ang**2):
  XXX=            -13.0698  YYY=             -1.0394  ZZZ=             -3.6101  XYY=             -8.1301
  XXY=             -6.7330  XXZ=             15.8473  XZZ=             -1.3810  YZZ=              1.8124
  YYZ=              1.0860  XYZ=             -5.1063
 Hexadecapole moment (field-independent basis, Debye-Ang**3):
 XXXX=          -1654.3550 YYYY=           -358.2022 ZZZZ=           -311.9238 XXXY=             11.1073
 XXXZ=            -44.2928 YYYX=             -2.7396 YYYZ=              1.7145 ZZZX=             -1.1174
 ZZZY=              0.1478 XXYY=           -350.1793 XXZZ=           -358.0355 YYZZ=           -110.7041
 XXYZ=             12.5908 YYXZ=              3.3837 ZZXY=              1.6416
 N-N= 4.746315399404D+02 E-N=-1.854668513249D+03  KE= 3.876795225590D+02
 Calling FoFJK, ICntrl=      2127 FMM=F ISym2X=0 I1Cent= 0 IOpClX= 0 NMat=1 NMatS=1 NMatT=0.
 ***** Axes restored to original set *****
 -------------------------------------------------------------------
 Center     Atomic                   Forces (Hartrees/Bohr)
 Number     Number              X              Y              Z
 -------------------------------------------------------------------
      1        8           0.000034879    0.003178980   -0.007620650
      2        6           0.006581306    0.033838395    0.022051827
      3        6          -0.004588570    0.001128968    0.000789519
      4        6           0.016887204   -0.006684806    0.015936936
      5        6           0.001341405   -0.001387601   -0.008607726
      6        6          -0.019993798   -0.013985377   -0.040234264
      7        6           0.003739445   -0.006264434    0.001741238
      8        6           0.005103989    0.004980554    0.002990337
      9        6           0.004359301   -0.000163130   -0.004299770
     10        1          -0.006612675   -0.002328148    0.012497468
     11        1           0.001996776    0.001161398   -0.004089451
     12        1          -0.000165948   -0.001133847   -0.003230338
     13        1          -0.000243204    0.000921940    0.003912838
     14        1           0.000707326   -0.000219190    0.002873745
     15        1          -0.012967587   -0.003548695    0.007708938
     16        1           0.011246666   -0.010527352   -0.002040510
     17        1          -0.000172727    0.003402305   -0.000267043
     18        1           0.000158919    0.002713846   -0.002077169
     19        1          -0.001392264    0.001602049   -0.000642468
     20        1          -0.001635332   -0.001039786   -0.000801300
     21        1          -0.000650510   -0.003069609   -0.000978463
     22        1          -0.000295558   -0.002413844   -0.002587642
     23        1          -0.000681473    0.000707352    0.002999957
     24        1          -0.001983915    0.000111671    0.001217135
     25        1          -0.000773655   -0.000981639    0.002756855
 -------------------------------------------------------------------
 Cartesian Forces:  Max     0.040234264 RMS     0.008657668

 GradGradGradGradGradGradGradGradGradGradGradGradGradGradGradGradGradGrad
 Berny optimization.
 FormGI is forming the generalized inverse of G from B-inverse, IUseBI=4.
 Internal  Forces:  Max     0.044731777 RMS     0.005395171
 Search for a local minimum.
 Step number   1 out of a maximum of  139
 All quantities printed in internal units (Hartrees-Bohrs-Radians)
 Mixed Optimization -- RFO/linear search
 Second derivative matrix not updated -- first step.
 ITU=  0
     Eigenvalues ---    0.00230   0.00230   0.00230   0.00230   0.00230
     Eigenvalues ---    0.00230   0.01726   0.02533   0.03154   0.03392
     Eigenvalues ---    0.03901   0.04227   0.04699   0.04754   0.04893
     Eigenvalues ---    0.05119   0.05535   0.05537   0.05571   0.05576
     Eigenvalues ---    0.05597   0.05598   0.08397   0.08809   0.12257
     Eigenvalues ---    0.12556   0.13180   0.14199   0.14540   0.15388
     Eigenvalues ---    0.16000   0.16000   0.16000   0.16000   0.16000
     Eigenvalues ---    0.16000   0.16000   0.16000   0.16000   0.16000
     Eigenvalues ---    0.16000   0.19021   0.22008   0.22030   0.25198
     Eigenvalues ---    0.26162   0.27557   0.28308   0.28313   0.28316
     Eigenvalues ---    0.28327   0.32702   0.32779   0.32835   0.34137
     Eigenvalues ---    0.34665   0.34691   0.34697   0.34697   0.34704
     Eigenvalues ---    0.34706   0.34714   0.34718   0.34737   0.34808
     Eigenvalues ---    0.34820   0.34875   0.34891   0.39275
 RFO step:  Lambda=-1.62329646D-02 EMin= 2.30000000D-03
 Linear search not attempted -- first point.
 Iteration  1 RMS(Cart)=  0.03876391 RMS(Int)=  0.00183356
 Iteration  2 RMS(Cart)=  0.00198380 RMS(Int)=  0.00091997
 Iteration  3 RMS(Cart)=  0.00000773 RMS(Int)=  0.00091995
 Iteration  4 RMS(Cart)=  0.00000003 RMS(Int)=  0.00091995
 Variable       Old X    -DE/DX   Delta X   Delta X   Delta X     New X
                                 (Linear)    (Quad)   (Total)
    R1        2.72407  -0.00524   0.00000  -0.01892  -0.01998   2.70409
    R2        2.71352  -0.00798   0.00000  -0.00856  -0.00786   2.70567
    R3        2.96343  -0.02354   0.00000  -0.08473  -0.08473   2.87869
    R4        2.97088  -0.04473   0.00000  -0.16905  -0.16870   2.80218
    R5        2.09579  -0.01298   0.00000  -0.03780  -0.03780   2.05798
    R6        2.93117  -0.00126   0.00000  -0.00432  -0.00432   2.92685
    R7        2.91429   0.00136   0.00000   0.00453   0.00453   2.91881
    R8        2.91460   0.00109   0.00000   0.00365   0.00365   2.91826
    R9        2.91470   0.00188   0.00000   0.00628   0.00628   2.92097
   R10        2.91454  -0.00260   0.00000  -0.00869  -0.00869   2.90585
   R11        2.05879   0.00279   0.00000   0.00765   0.00765   2.06644
   R12        2.05852   0.00292   0.00000   0.00800   0.00800   2.06653
   R13        2.06104   0.00306   0.00000   0.00842   0.00842   2.06946
   R14        2.06222   0.00165   0.00000   0.00455   0.00455   2.06677
   R15        2.09442  -0.01442   0.00000  -0.04191  -0.04191   2.05251
   R16        2.09342  -0.01444   0.00000  -0.04191  -0.04191   2.05151
   R17        2.06141   0.00233   0.00000   0.00642   0.00642   2.06784
   R18        2.05988   0.00206   0.00000   0.00566   0.00566   2.06554
   R19        2.06154   0.00164   0.00000   0.00450   0.00450   2.06605
   R20        2.06158   0.00163   0.00000   0.00449   0.00449   2.06607
   R21        2.06135   0.00218   0.00000   0.00601   0.00601   2.06736
   R22        2.05968   0.00211   0.00000   0.00578   0.00578   2.06545
   R23        2.06170   0.00212   0.00000   0.00584   0.00584   2.06754
   R24        2.06180   0.00176   0.00000   0.00486   0.00486   2.06666
   R25        2.06170   0.00200   0.00000   0.00549   0.00549   2.06719
    A1        2.09869  -0.00373   0.00000  -0.02042  -0.02183   2.07686
    A2        2.02902  -0.00261   0.00000  -0.04679  -0.04890   1.98012
    A3        2.12820  -0.00242   0.00000   0.01492   0.01456   2.14277
    A4        2.00286   0.00242   0.00000   0.00411   0.00184   2.00470
    A5        2.00360   0.00036   0.00000   0.02298   0.02238   2.02599
    A6        1.94844  -0.00048   0.00000  -0.00808  -0.00807   1.94037
    A7        1.94971  -0.00086   0.00000  -0.01154  -0.01152   1.93819
    A8        1.88101  -0.00022   0.00000  -0.00378  -0.00372   1.87729
    A9        1.90577   0.00050   0.00000   0.00556   0.00541   1.91119
   A10        1.88865   0.00050   0.00000   0.00963   0.00955   1.89820
   A11        1.88818   0.00063   0.00000   0.00934   0.00925   1.89743
   A12        1.98672  -0.00009   0.00000   0.00232   0.00233   1.98905
   A13        1.87993  -0.00169   0.00000  -0.01496  -0.01502   1.86491
   A14        1.87726  -0.00019   0.00000  -0.00324  -0.00331   1.87395
   A15        1.91376   0.00214   0.00000   0.01900   0.01901   1.93278
   A16        1.91201   0.00078   0.00000   0.01013   0.01011   1.92212
   A17        1.89163  -0.00108   0.00000  -0.01504  -0.01523   1.87640
   A18        2.02812  -0.00183   0.00000  -0.00466  -0.00465   2.02346
   A19        1.88805  -0.00040   0.00000  -0.00571  -0.00570   1.88235
   A20        1.89048   0.00080   0.00000   0.00429   0.00429   1.89477
   A21        1.88975   0.00191   0.00000   0.01365   0.01365   1.90340
   A22        1.88488   0.00093   0.00000   0.00823   0.00822   1.89310
   A23        1.87751  -0.00146   0.00000  -0.01728  -0.01732   1.86020
   A24        2.03645  -0.00282   0.00000  -0.04174  -0.04503   1.99142
   A25        2.04001  -0.00257   0.00000  -0.03683  -0.04006   1.99996
   A26        2.02262   0.00601   0.00000   0.05557   0.05138   2.07399
   A27        2.03073   0.00560   0.00000   0.05163   0.04740   2.07813
   A28        2.07799  -0.00621   0.00000  -0.02285  -0.02891   2.04908
   A29        1.92182   0.00260   0.00000   0.01449   0.01439   1.93621
   A30        1.93042   0.00313   0.00000   0.01875   0.01863   1.94905
   A31        1.92146   0.00095   0.00000   0.00462   0.00459   1.92604
   A32        1.90246  -0.00276   0.00000  -0.01422  -0.01438   1.88808
   A33        1.89858  -0.00212   0.00000  -0.01400  -0.01401   1.88457
   A34        1.88843  -0.00200   0.00000  -0.01081  -0.01086   1.87757
   A35        1.92138   0.00068   0.00000   0.00319   0.00316   1.92455
   A36        1.92175   0.00256   0.00000   0.01423   0.01414   1.93589
   A37        1.93068   0.00335   0.00000   0.02000   0.01988   1.95056
   A38        1.89854  -0.00196   0.00000  -0.01311  -0.01312   1.88542
   A39        1.88808  -0.00196   0.00000  -0.01051  -0.01056   1.87752
   A40        1.90273  -0.00287   0.00000  -0.01495  -0.01513   1.88761
   A41        1.92337   0.00251   0.00000   0.01421   0.01413   1.93750
   A42        1.92530   0.00120   0.00000   0.00683   0.00678   1.93208
   A43        1.92325   0.00241   0.00000   0.01371   0.01364   1.93689
   A44        1.89617  -0.00192   0.00000  -0.01099  -0.01104   1.88513
   A45        1.89880  -0.00253   0.00000  -0.01435  -0.01445   1.88435
   A46        1.89636  -0.00184   0.00000  -0.01038  -0.01043   1.88593
    D1        0.30536   0.00485   0.00000   0.07309   0.07252   0.37788
    D2        2.43119   0.00630   0.00000   0.08801   0.08738   2.51858
    D3       -1.81634   0.00406   0.00000   0.06107   0.06054  -1.75580
    D4       -0.87003  -0.00179   0.00000   0.03126   0.03147  -0.83856
    D5        1.25581  -0.00034   0.00000   0.04618   0.04633   1.30214
    D6       -2.99173  -0.00258   0.00000   0.01924   0.01948  -2.97225
    D7        2.86022  -0.00268   0.00000  -0.05126  -0.05088   2.80934
    D8       -1.29712  -0.00124   0.00000  -0.03634  -0.03602  -1.33314
    D9        0.73852  -0.00347   0.00000  -0.06328  -0.06286   0.67566
   D10       -2.55204  -0.00407   0.00000  -0.08837  -0.08824  -2.64028
   D11        0.02144   0.00292   0.00000   0.04562   0.04534   0.06678
   D12        0.00066  -0.00254   0.00000  -0.01163  -0.01133  -0.01067
   D13        2.57414   0.00445   0.00000   0.12236   0.12226   2.69640
   D14       -1.06811   0.00007   0.00000   0.00462   0.00459  -1.06352
   D15        1.06060   0.00100   0.00000   0.01483   0.01480   1.07541
   D16        3.09083  -0.00051   0.00000  -0.00631  -0.00633   3.08451
   D17        1.07148  -0.00026   0.00000  -0.00240  -0.00239   1.06909
   D18       -3.08299   0.00067   0.00000   0.00781   0.00782  -3.07517
   D19       -1.05276  -0.00084   0.00000  -0.01333  -0.01331  -1.06607
   D20       -3.13983  -0.00013   0.00000  -0.00008  -0.00007  -3.13990
   D21       -1.01111   0.00080   0.00000   0.01013   0.01014  -1.00098
   D22        1.01912  -0.00071   0.00000  -0.01100  -0.01099   1.00812
   D23       -0.94569  -0.00057   0.00000  -0.01141  -0.01145  -0.95715
   D24        1.15812  -0.00030   0.00000  -0.00758  -0.00755   1.15057
   D25       -3.03895  -0.00020   0.00000  -0.00617  -0.00616  -3.04511
   D26       -3.11023   0.00050   0.00000   0.00491   0.00489  -3.10534
   D27       -1.00641   0.00078   0.00000   0.00874   0.00879  -0.99762
   D28        1.07970   0.00088   0.00000   0.01015   0.01018   1.08988
   D29        1.12147  -0.00081   0.00000  -0.01475  -0.01481   1.10666
   D30       -3.05790  -0.00053   0.00000  -0.01092  -0.01091  -3.06881
   D31       -0.97179  -0.00043   0.00000  -0.00951  -0.00951  -0.98130
   D32        3.03737   0.00005   0.00000   0.00372   0.00371   3.04108
   D33        0.94426   0.00043   0.00000   0.00894   0.00898   0.95324
   D34       -1.16002   0.00017   0.00000   0.00538   0.00534  -1.15468
   D35       -1.08203  -0.00080   0.00000  -0.01057  -0.01060  -1.09263
   D36        3.10804  -0.00043   0.00000  -0.00535  -0.00532   3.10272
   D37        1.00376  -0.00068   0.00000  -0.00891  -0.00896   0.99480
   D38        0.96976   0.00043   0.00000   0.00927   0.00928   0.97904
   D39       -1.12336   0.00080   0.00000   0.01449   0.01455  -1.10880
   D40        3.05555   0.00055   0.00000   0.01092   0.01091   3.06646
   D41        1.04780   0.00014   0.00000   0.00171   0.00172   1.04952
   D42        3.14148   0.00012   0.00000   0.00149   0.00149  -3.14021
   D43       -1.04785   0.00014   0.00000   0.00171   0.00170  -1.04615
   D44       -1.06179   0.00055   0.00000   0.00807   0.00810  -1.05369
   D45        1.03189   0.00054   0.00000   0.00785   0.00787   1.03977
   D46        3.12574   0.00055   0.00000   0.00808   0.00808   3.13382
   D47       -3.12454  -0.00066   0.00000  -0.00895  -0.00896  -3.13350
   D48       -1.03086  -0.00068   0.00000  -0.00917  -0.00919  -1.04005
   D49        1.06299  -0.00066   0.00000  -0.00895  -0.00898   1.05401
   D50       -3.12932  -0.00052   0.00000  -0.00269  -0.00270  -3.13202
   D51        1.02605  -0.00023   0.00000  -0.00268  -0.00266   1.02339
   D52       -1.00212  -0.00001   0.00000   0.00615   0.00615  -0.99597
   D53        1.04687   0.00016   0.00000   0.00119   0.00119   1.04806
   D54       -1.08094   0.00045   0.00000   0.00121   0.00122  -1.07972
   D55       -3.10911   0.00068   0.00000   0.01003   0.01003  -3.09908
   D56       -1.02703  -0.00027   0.00000   0.00200   0.00199  -1.02503
   D57        3.12834   0.00002   0.00000   0.00202   0.00202   3.13037
   D58        1.10018   0.00024   0.00000   0.01085   0.01083   1.11101
         Item               Value     Threshold  Converged?
 Maximum Force            0.044732     0.000450     NO 
 RMS     Force            0.005395     0.000300     NO 
 Maximum Displacement     0.144879     0.001800     NO 
 RMS     Displacement     0.039611     0.001200     NO 
 Predicted change in Energy=-9.031636D-03
 GradGradGradGradGradGradGradGradGradGradGradGradGradGradGradGradGradGrad

                          Input orientation:                          
 ---------------------------------------------------------------------
 Center     Atomic      Atomic             Coordinates (Angstroms)
 Number     Number       Type             X           Y           Z
 ---------------------------------------------------------------------
      1          8           0        3.096503   -0.715917    0.691132
      2          6           0        2.749431   -0.104948   -0.555404
      3          6           0       -1.177914    0.167219   -0.018986
      4          6           0        1.277801    0.054219   -0.915304
      5          6           0        0.331536    0.022409    0.296357
      6          6           0        3.400010    0.673549    0.526043
      7          6           0       -1.477277    1.517719   -0.706175
      8          6           0       -1.670333   -0.988552   -0.917042
      9          6           0       -1.942163    0.112391    1.323454
     10          1           0        3.392370   -0.408017   -1.380499
     11          1           0        1.184036    1.000560   -1.455134
     12          1           0        1.023526   -0.748915   -1.612578
     13          1           0        0.608605    0.825340    0.987591
     14          1           0        0.486555   -0.918231    0.832382
     15          1           0        4.461724    0.889607    0.449979
     16          1           0        2.795987    1.342833    1.130833
     17          1           0       -1.104393    2.353095   -0.105763
     18          1           0       -1.017836    1.577479   -1.696161
     19          1           0       -2.555160    1.648678   -0.833975
     20          1           0       -2.754284   -0.931189   -1.047801
     21          1           0       -1.434151   -1.958605   -0.469770
     22          1           0       -1.215707   -0.951826   -1.910317
     23          1           0       -1.627055    0.922723    1.987617
     24          1           0       -3.019086    0.209084    1.159414
     25          1           0       -1.761426   -0.835605    1.838507
 ---------------------------------------------------------------------
                    Distance matrix (angstroms):
                    1          2          3          4          5
     1  O    0.000000
     2  C    1.430941   0.000000
     3  C    4.422086   3.973142   0.000000
     4  C    2.545864   1.523338   2.616618   0.000000
     5  C    2.888948   2.566697   1.548822   1.537710   0.000000
     6  C    1.431777   1.482848   4.637975   2.639095   3.145199
     7  C    5.278358   4.529993   1.544570   3.126663   2.552024
     8  C    5.038182   4.521709   1.544276   3.127118   2.549873
     9  C    5.145297   5.058498   1.545713   3.922192   2.496544
    10  H    2.115182   1.089038   4.803344   2.213927   3.516507
    11  H    3.348176   2.117103   2.887177   1.093513   2.179738
    12  H    3.099258   2.123925   2.867957   1.093558   2.172055
    13  H    2.941597   2.798107   2.153595   2.159505   1.095112
    14  H    2.621586   2.776326   2.161825   2.150845   1.093690
    15  H    2.121247   2.220784   5.705023   3.563599   4.223043
    16  H    2.126522   2.222978   4.300703   2.855187   2.917772
    17  H    5.263212   4.593051   2.188832   3.408084   2.766892
    18  H    5.280778   4.280676   2.197128   2.863565   2.865165
    19  H    6.313363   5.593880   2.180764   4.152168   3.500773
    20  H    6.107532   5.587129   2.179427   4.152866   3.498341
    21  H    4.839297   4.576651   2.188149   3.406559   2.762067
    22  H    5.041661   4.274964   2.197914   2.867012   2.865747
    23  H    5.165076   5.164948   2.190655   4.197551   2.739891
    24  H    6.202850   6.026194   2.186388   4.774063   3.465023
    25  H    4.993022   5.158730   2.190074   4.196684   2.737682
                    6          7          8          9         10
     6  C    0.000000
     7  C    5.100873   0.000000
     8  C    5.527517   2.522524   0.000000
     9  C    5.430431   2.512063   2.511133   0.000000
    10  H    2.191973   5.279833   5.116910   6.003285   0.000000
    11  H    2.990408   2.812646   3.520445   4.275806   2.620381
    12  H    3.499254   3.494740   2.792503   4.261156   2.404473
    13  H    2.833373   2.774732   3.480142   2.669742   3.857248
    14  H    3.334040   3.486782   2.778056   2.683656   3.687942
    15  H    1.086142   6.083005   6.557312   6.509746   2.485558
    16  H    1.085613   4.654672   5.438489   4.899098   3.118964
    17  H    4.848680   1.094253   3.484977   2.786624   5.428588
    18  H    5.027190   1.093036   2.759944   3.481226   4.846829
    19  H    6.185836   1.093305   2.782949   2.718537   6.316787
    20  H    6.551908   2.782913   1.093316   2.715041   6.177844
    21  H    5.593656   3.484620   1.094001   2.786172   5.150636
    22  H    5.466493   2.759897   1.092991   3.481031   4.670204
    23  H    5.241151   2.762783   3.477339   1.094095   6.189483
    24  H    6.466968   2.751386   2.750479   1.093628   6.923781
    25  H    5.535388   3.477683   2.761293   1.093911   6.091506
                   11         12         13         14         15
    11  H    0.000000
    12  H    1.763864   0.000000
    13  H    2.515696   3.067787   0.000000
    14  H    3.066100   2.508951   1.754715   0.000000
    15  H    3.792757   4.331293   3.890974   4.383660   0.000000
    16  H    3.066392   3.878573   2.252323   3.245760   1.855708
    17  H    2.981117   4.052283   2.542405   3.756702   5.782068
    18  H    2.288923   3.096168   3.227003   3.858146   5.924919
    19  H    3.845450   4.377405   3.742379   4.314835   7.173659
    20  H    4.405445   3.824141   4.305489   3.746771   7.591404
    21  H    4.072163   2.968087   3.747947   2.543047   6.612079
    22  H    3.126943   2.268036   3.858019   3.228192   6.418341
    23  H    4.445315   4.772982   2.451064   3.031671   6.280020
    24  H    5.012837   4.994439   3.683672   3.696933   7.545126
    25  H    4.784906   4.435478   3.016595   2.464251   6.605449
                   16         17         18         19         20
    16  H    0.000000
    17  H    4.214590   0.000000
    18  H    4.753125   1.771563   0.000000
    19  H    5.708659   1.769525   1.764029   0.000000
    20  H    6.381468   3.794218   3.119140   2.596360   0.000000
    21  H    5.599598   4.339585   3.765800   3.794971   1.769875
    22  H    5.532427   3.767136   2.546056   3.116933   1.763967
    23  H    4.524807   2.588702   3.790788   3.057739   3.731138
    24  H    5.924634   3.140622   3.745907   2.502251   2.498427
    25  H    5.100628   3.792055   4.343936   3.734145   3.053797
                   21         22         23         24         25
    21  H    0.000000
    22  H    1.771017   0.000000
    23  H    3.791835   4.344771   0.000000
    24  H    3.140881   3.744748   1.770015   0.000000
    25  H    2.587737   3.790119   1.769747   1.770382   0.000000
 Stoichiometry    C8H16O
 Framework group  C1[X(C8H16O)]
 Deg. of freedom    69
 Full point group                 C1      NOp   1
 Largest Abelian subgroup         C1      NOp   1
 Largest concise Abelian subgroup C1      NOp   1
                         Standard orientation:                         
 ---------------------------------------------------------------------
 Center     Atomic      Atomic             Coordinates (Angstroms)
 Number     Number       Type             X           Y           Z
 ---------------------------------------------------------------------
      1          8           0       -2.719502    0.517797   -0.785058
      2          6           0       -2.297858   -0.630121   -0.042028
      3          6           0        1.610405    0.083646    0.001237
      4          6           0       -0.807461   -0.911871    0.099009
      5          6           0        0.084662    0.321545   -0.118597
      6          6           0       -2.965221    0.513519    0.625469
      7          6           0        1.987402   -0.420416    1.411730
      8          6           0        2.098401   -0.930505   -1.056188
      9          6           0        2.314403    1.437048   -0.247594
     10          1           0       -2.915685   -1.509918   -0.215956
     11          1           0       -0.656637   -1.327274    1.099241
     12          1           0       -0.553010   -1.692529   -0.623276
     13          1           0       -0.192300    1.095328    0.605160
     14          1           0       -0.126954    0.731564   -1.110192
     15          1           0       -4.014224    0.424562    0.892645
     16          1           0       -2.363628    1.218415    1.190944
     17          1           0        1.619811    0.263671    2.182633
     18          1           0        1.572930   -1.412175    1.610114
     19          1           0        3.073777   -0.490335    1.512800
     20          1           0        3.188298   -1.012181   -1.027997
     21          1           0        1.808459   -0.615185   -2.062838
     22          1           0        1.688044   -1.928178   -0.880446
     23          1           0        2.000880    2.183459    0.488354
     24          1           0        3.400120    1.326939   -0.176068
     25          1           0        2.077735    1.824393   -1.242880
 ---------------------------------------------------------------------
 Rotational constants (GHZ):      3.0710111      0.7796741      0.7642859
 Standard basis: 6-311+G(d,p) (5D, 7F)
 There are   303 symmetry adapted cartesian basis functions of A   symmetry.
 There are   294 symmetry adapted basis functions of A   symmetry.
   294 basis functions,   452 primitive gaussians,   303 cartesian basis functions
    36 alpha electrons       36 beta electrons
       nuclear repulsion energy       478.6046321816 Hartrees.
 NAtoms=   25 NActive=   25 NUniq=   25 SFac= 1.00D+00 NAtFMM=   60 NAOKFM=F Big=F
 Integral buffers will be    262144 words long.
 Raffenetti 2 integral format.
 Two-electron integral symmetry is turned on.
 One-electron integrals computed using PRISM.
 NBasis=   294 RedAO= T EigKep=  6.97D-06  NBF=   294
 NBsUse=   294 1.00D-06 EigRej= -1.00D+00 NBFU=   294
 Initial guess from the checkpoint file:  "G:\Education Materials\GitHub Repositories\dft-analysis-cid-545295\545295_CEM.chk"
 B after Tr=     0.000000    0.000000    0.000000
         Rot=    0.999600   -0.028096   -0.001084    0.002923 Ang=  -3.24 deg.
 ExpMin= 4.38D-02 ExpMax= 8.59D+03 ExpMxC= 1.30D+03 IAcc=2 IRadAn=         4 AccDes= 0.00D+00
 Harris functional with IExCor=  402 and IRadAn=       4 diagonalized for initial guess.
 HarFok:  IExCor=  402 AccDes= 0.00D+00 IRadAn=         4 IDoV= 1 UseB2=F ITyADJ=14
 ICtDFT=  3500011 ScaDFX=  1.000000  1.000000  1.000000  1.000000
 FoFCou: FMM=F IPFlag=           0 FMFlag=      100000 FMFlg1=           0
         NFxFlg=           0 DoJE=T BraDBF=F KetDBF=T FulRan=T
         wScrn=  0.000000 ICntrl=     500 IOpCl=  0 I1Cent=   200000004 NGrid=           0
         NMat0=    1 NMatS0=      1 NMatT0=    0 NMatD0=    1 NMtDS0=    0 NMtDT0=    0
 Petite list used in FoFCou.
 Requested convergence on RMS density matrix=1.00D-08 within 128 cycles.
 Requested convergence on MAX density matrix=1.00D-06.
 Requested convergence on             energy=1.00D-06.
 No special actions if energy rises.
 SCF Done:  E(RB3LYP) =  -389.784940362     A.U. after   11 cycles
            NFock= 11  Conv=0.33D-08     -V/T= 2.0048
 Calling FoFJK, ICntrl=      2127 FMM=F ISym2X=0 I1Cent= 0 IOpClX= 0 NMat=1 NMatS=1 NMatT=0.
 ***** Axes restored to original set *****
 -------------------------------------------------------------------
 Center     Atomic                   Forces (Hartrees/Bohr)
 Number     Number              X              Y              Z
 -------------------------------------------------------------------
      1        8          -0.000335175   -0.004863744    0.000639181
      2        6           0.001303093    0.009334618    0.005264075
      3        6          -0.002200721    0.000429849    0.000706311
      4        6           0.003400462   -0.003206307    0.004624002
      5        6           0.000042435    0.000378111   -0.004008362
      6        6          -0.002836647   -0.006170201   -0.007356318
      7        6           0.000888338   -0.003069588    0.001098929
      8        6           0.001160255    0.002425162    0.001589018
      9        6           0.001276545    0.000053923   -0.002881840
     10        1           0.000014909   -0.000884031   -0.000112060
     11        1          -0.000914813    0.000023338   -0.002242630
     12        1          -0.001442575    0.000417635   -0.000684667
     13        1          -0.000150857   -0.000124150    0.000963693
     14        1           0.000495553    0.000447591    0.000514385
     15        1          -0.000081773    0.002860608    0.001172949
     16        1           0.001841277    0.001513007    0.000831173
     17        1          -0.000160877    0.000564955   -0.000039054
     18        1          -0.000080030    0.000495359   -0.000158041
     19        1          -0.000484168    0.000609722   -0.000277932
     20        1          -0.000603001   -0.000459875   -0.000368751
     21        1          -0.000251210   -0.000457771   -0.000151310
     22        1          -0.000177263   -0.000373676   -0.000206731
     23        1          -0.000120973    0.000098320    0.000387624
     24        1          -0.000514082    0.000033180    0.000428794
     25        1          -0.000068702   -0.000076036    0.000267564
 -------------------------------------------------------------------
 Cartesian Forces:  Max     0.009334618 RMS     0.002212866

 GradGradGradGradGradGradGradGradGradGradGradGradGradGradGradGradGradGrad
 Berny optimization.
 Using GEDIIS/GDIIS optimizer.
 FormGI is forming the generalized inverse of G from B-inverse, IUseBI=4.
 Internal  Forces:  Max     0.006267807 RMS     0.000958248
 Search for a local minimum.
 Step number   2 out of a maximum of  139
 All quantities printed in internal units (Hartrees-Bohrs-Radians)
 Mixed Optimization -- En-DIIS/RFO-DIIS
 Update second derivatives using D2CorX and points    1    2
 DE= -9.38D-03 DEPred=-9.03D-03 R= 1.04D+00
 TightC=F SS=  1.41D+00  RLast= 3.40D-01 DXNew= 5.0454D-01 1.0201D+00
 Trust test= 1.04D+00 RLast= 3.40D-01 DXMaxT set to 5.05D-01
 ITU=  1  0
 Use linear search instead of GDIIS.
     Eigenvalues ---    0.00229   0.00230   0.00230   0.00230   0.00230
     Eigenvalues ---    0.00230   0.01805   0.02580   0.03140   0.03349
     Eigenvalues ---    0.03929   0.04344   0.04642   0.04694   0.04935
     Eigenvalues ---    0.04989   0.05357   0.05363   0.05436   0.05467
     Eigenvalues ---    0.05504   0.05512   0.08527   0.08808   0.12271
     Eigenvalues ---    0.12450   0.12614   0.14205   0.14546   0.15187
     Eigenvalues ---    0.15595   0.16000   0.16000   0.16000   0.16000
     Eigenvalues ---    0.16000   0.16000   0.16000   0.16000   0.16000
     Eigenvalues ---    0.16054   0.19070   0.21797   0.21993   0.24007
     Eigenvalues ---    0.26456   0.27611   0.28305   0.28311   0.28322
     Eigenvalues ---    0.28615   0.32726   0.32809   0.33302   0.33458
     Eigenvalues ---    0.34654   0.34674   0.34693   0.34697   0.34705
     Eigenvalues ---    0.34706   0.34715   0.34719   0.34733   0.34806
     Eigenvalues ---    0.34819   0.34875   0.34898   0.39776
 RFO step:  Lambda=-1.15156854D-03 EMin= 2.29267775D-03
 Quartic linear search produced a step of  0.10324.
 Iteration  1 RMS(Cart)=  0.05460778 RMS(Int)=  0.00260576
 Iteration  2 RMS(Cart)=  0.00285321 RMS(Int)=  0.00012272
 Iteration  3 RMS(Cart)=  0.00000855 RMS(Int)=  0.00012260
 Iteration  4 RMS(Cart)=  0.00000000 RMS(Int)=  0.00012260
 Variable       Old X    -DE/DX   Delta X   Delta X   Delta X     New X
                                 (Linear)    (Quad)   (Total)
    R1        2.70409   0.00187  -0.00206   0.00538   0.00320   2.70729
    R2        2.70567   0.00167  -0.00081   0.00941   0.00868   2.71435
    R3        2.87869  -0.00018  -0.00875   0.00439  -0.00435   2.87434
    R4        2.80218  -0.00627  -0.01742  -0.02145  -0.03883   2.76334
    R5        2.05798   0.00034  -0.00390   0.00333  -0.00058   2.05741
    R6        2.92685   0.00124  -0.00045   0.00519   0.00475   2.93160
    R7        2.91881  -0.00155   0.00047  -0.00626  -0.00579   2.91303
    R8        2.91826  -0.00138   0.00038  -0.00557  -0.00519   2.91307
    R9        2.92097  -0.00185   0.00065  -0.00753  -0.00688   2.91409
   R10        2.90585  -0.00111  -0.00090  -0.00379  -0.00469   2.90116
   R11        2.06644   0.00121   0.00079   0.00337   0.00416   2.07060
   R12        2.06653   0.00046   0.00083   0.00100   0.00183   2.06835
   R13        2.06946   0.00048   0.00087   0.00103   0.00190   2.07137
   R14        2.06677  -0.00006   0.00047  -0.00046   0.00001   2.06678
   R15        2.05251   0.00041  -0.00433   0.00379  -0.00054   2.05197
   R16        2.05151   0.00038  -0.00433   0.00369  -0.00064   2.05087
   R17        2.06784   0.00035   0.00066   0.00074   0.00140   2.06924
   R18        2.06554   0.00013   0.00058   0.00010   0.00069   2.06622
   R19        2.06605   0.00059   0.00046   0.00160   0.00206   2.06811
   R20        2.06607   0.00061   0.00046   0.00169   0.00215   2.06822
   R21        2.06736   0.00030   0.00062   0.00059   0.00121   2.06857
   R22        2.06545   0.00010   0.00060  -0.00001   0.00059   2.06604
   R23        2.06754   0.00027   0.00060   0.00052   0.00112   2.06866
   R24        2.06666   0.00044   0.00050   0.00113   0.00163   2.06828
   R25        2.06719   0.00019   0.00057   0.00027   0.00084   2.06803
    A1        2.07686  -0.00041  -0.00225   0.00235  -0.00030   2.07657
    A2        1.98012  -0.00029  -0.00505  -0.01123  -0.01676   1.96335
    A3        2.14277   0.00190   0.00150   0.01645   0.01790   2.16067
    A4        2.00470  -0.00111   0.00019  -0.01128  -0.01161   1.99309
    A5        2.02599  -0.00065   0.00231   0.00235   0.00457   2.03055
    A6        1.94037  -0.00006  -0.00083   0.00138   0.00055   1.94092
    A7        1.93819   0.00006  -0.00119   0.00245   0.00127   1.93946
    A8        1.87729   0.00014  -0.00038   0.00243   0.00205   1.87934
    A9        1.91119   0.00002   0.00056  -0.00133  -0.00079   1.91040
   A10        1.89820  -0.00002   0.00099  -0.00196  -0.00099   1.89721
   A11        1.89743  -0.00015   0.00096  -0.00311  -0.00216   1.89527
   A12        1.98905   0.00248   0.00024   0.01762   0.01778   2.00683
   A13        1.86491  -0.00034  -0.00155   0.00561   0.00405   1.86896
   A14        1.87395  -0.00001  -0.00034   0.00784   0.00750   1.88145
   A15        1.93278  -0.00075   0.00196  -0.00605  -0.00423   1.92855
   A16        1.92212  -0.00104   0.00104  -0.00759  -0.00672   1.91540
   A17        1.87640  -0.00044  -0.00157  -0.01882  -0.02047   1.85593
   A18        2.02346   0.00077  -0.00048   0.00614   0.00565   2.02911
[...]
 30,-0.03267489,-0.10243729,-0.10560595,-0.00074044,0.00258618,-0.00147
 273,0.00016106,0.00061277,0.00129655,0.00001256,-0.00001003,-0.0000100
 6,0.00003387,0.00000564,-0.00018680,-0.00001409,0.00018124,-0.00002313
 ,0.00001872,-0.00024129,0.00006185,0.00025333,-0.00006269,0.00003767,0
 .00001330,-0.00000808,0.00000255,-0.00000778,-0.00001039,0.00000011,0.
 03715249,0.11112367,0.11249487,0.00008151,-0.00008098,0.00003371,-0.00
 014891,0.00005079,-0.00007850,0.00350557,-0.00078400,-0.00869645,-0.00
 073313,0.00019760,-0.00022348,0.00044702,-0.00062056,-0.00027966,-0.00
 000086,-0.00000264,-0.00002352,-0.09387165,0.00067101,0.10023317,0.000
 00453,-0.00026967,0.00013907,-0.00021539,0.00088563,-0.00074191,0.0000
 5114,0.00000472,-0.00000490,-0.00157443,0.00048800,-0.00030479,0.00016
 102,-0.00005226,-0.00001620,-0.00007114,0.00006360,-0.00003674,0.00012
 139,0.00000349,0.00018366,0.00001726,0.00000096,0.00001373,-0.00000569
 ,0.00000325,-0.00000159,0.00359487,0.00058947,-0.00912237,0.10078781,-
 0.00002377,0.00002368,-0.00000287,0.00007368,-0.00013925,-0.00010356,-
 0.01293217,0.00021313,0.02303774,0.00040552,0.00050012,-0.00000755,-0.
 00057205,0.00072030,-0.00054383,-0.00005726,0.00000212,0.00000240,0.00
 098593,-0.04722938,-0.00256925,-0.00064799,0.00169844,0.00103195,0.001
 95906,-0.00457202,0.00222335,-0.00000732,0.00000171,0.00001083,0.00033
 938,0.00000710,0.00010599,0.00003877,-0.00022692,-0.00002042,0.0000775
 2,-0.00001728,-0.00002221,-0.00014237,-0.00003191,-0.00006421,-0.00001
 033,0.00000707,-0.00001982,-0.00000461,-0.00000780,-0.00000399,0.01279
 528,0.00037714,-0.02413221,-0.00210560,0.04955842,0.00032126,-0.000269
 88,0.00026677,-0.00060382,-0.00018888,0.00027292,0.00736989,-0.0014522
 0,-0.01531440,0.00069923,0.00069427,-0.00019238,0.00098254,-0.00019351
 ,-0.00018895,0.00006018,-0.00004551,-0.00010153,0.09925290,-0.00146008
 ,-0.25806422,-0.00004402,-0.00126586,0.00049557,-0.00222447,0.00389142
 ,-0.00087783,-0.00002518,0.00002514,-0.00000627,-0.00049121,-0.0008265
 9,0.00046634,-0.00007349,0.00017651,0.00002177,0.00004512,0.00008274,0
 .00006157,-0.00008839,0.00004619,0.00013826,0.00001053,0.00000100,0.00
 004935,0.00001896,0.00003133,0.00003905,0.00632950,0.00009815,-0.01328
 075,-0.11033286,0.00003800,0.28117674,-0.00026328,0.00010078,-0.000048
 43,0.00030886,0.00001883,0.00002333,-0.01013271,-0.00042607,-0.0011976
 3,0.00015271,-0.00025766,-0.00030676,0.00124716,0.00214062,-0.00065936
 ,0.00003230,0.00003504,0.00000724,-0.29997606,0.00218553,-0.03100448,0
 .00016392,-0.00071768,0.00024008,0.00046420,-0.00076502,0.00089685,-0.
 00008331,0.00000628,0.00000787,0.00018457,0.00015800,-0.00011731,-0.00
 002180,0.00005179,0.00006945,0.00019553,-0.00013119,0.00011005,-0.0006
 3741,0.00016078,-0.00020581,-0.00004264,0.00000175,-0.00000566,0.00002
 482,0.00000130,0.00003247,-0.00770929,-0.00014905,-0.00064110,-0.01320
 651,-0.00020387,-0.00152442,0.32743963,0.00008140,0.00009640,-0.000086
 99,0.00004585,0.00001267,-0.00003633,0.02662942,-0.00092166,0.00313274
 ,-0.00043653,-0.00013503,0.00046850,0.00034203,-0.00448241,0.00263461,
 -0.00001561,-0.00003563,0.00003329,0.00112691,-0.04628077,-0.00037668,
 0.00104959,0.00135893,0.00000119,0.00063528,0.00083242,-0.00103894,0.0
 0004700,-0.00001031,-0.00000858,0.00005983,0.00011248,-0.00021971,-0.0
 0000869,0.00003575,-0.00006814,0.00007510,0.00016803,0.00025374,0.0015
 6970,0.00024215,0.00052689,0.00002013,-0.00000586,-0.00001404,-0.00002
 691,-0.00003313,-0.00002306,-0.02731789,0.00065559,-0.00218572,0.00074
 275,-0.00099390,-0.00013191,-0.00301520,0.04956579,0.00005034,-0.00014
 217,0.00015244,-0.00026349,-0.00008704,0.00009176,-0.01738542,-0.00030
 778,-0.00380594,0.00072887,0.00035582,-0.00026917,-0.00018311,0.003583
 17,-0.00204497,0.00004702,0.00001231,-0.00003367,-0.03023032,-0.000353
 35,-0.04979678,0.00026254,-0.00082018,0.00016473,-0.00147989,-0.000452
 28,0.00062088,-0.00003463,0.00001114,0.00000363,-0.00016451,-0.0004799
 9,0.00016450,-0.00009632,0.00011278,0.00003375,0.00035048,0.00001265,0
 .00020802,-0.00124950,0.00023133,-0.00001855,-0.00001143,-0.00000309,0
 .00002496,0.00003264,0.00002106,0.00003694,-0.01574765,0.00073526,-0.0
 0247383,0.02968707,0.00006328,0.00442224,0.03451622,-0.00264965,0.0524
 2911,-0.00013063,0.00005854,-0.00001760,0.00016787,-0.00011710,-0.0000
 3651,-0.00957379,0.00027729,-0.00122154,0.00026427,0.00019233,-0.00020
 747,0.00121764,-0.00195429,-0.00053486,-0.00003218,-0.00000283,0.00002
 583,0.00017397,0.00073440,0.00018407,-0.30015658,-0.00683736,-0.029871
 29,0.00041915,0.00083452,0.00091346,-0.00007897,0.00001978,0.00001232,
 -0.00008120,-0.00013142,0.00001192,0.00017378,-0.00005216,-0.00021832,
 -0.00063737,-0.00030635,-0.00018440,0.00027320,0.00007817,0.00016210,-
 0.00005372,0.00001403,-0.00001691,0.00002873,-0.00000393,0.00003953,0.
 00036095,-0.00007952,0.00003033,-0.00009106,-0.00003064,-0.00006605,0.
 00055619,-0.00048983,0.00020504,0.32735381,-0.00000718,0.00016310,0.00
 001515,-0.00002078,-0.00006325,0.00008306,-0.02730716,-0.00161298,-0.0
 0335531,0.00027667,-0.00007648,-0.00057588,-0.00024098,-0.00462444,-0.
 00246010,0.00001387,-0.00007720,-0.00004653,-0.00105204,0.00138844,-0.
 00006950,-0.00576675,-0.04668662,-0.00006770,-0.00075988,0.00086638,0.
 00106191,-0.00005554,0.00001755,0.00000386,-0.00002412,-0.00000491,0.0
 0003042,0.00007992,0.00008191,0.00022787,-0.00166271,0.00004718,-0.000
 49485,-0.00001314,0.00016034,-0.00022219,-0.00003002,0.00003200,0.0000
 2743,0.00002717,0.00000386,0.00007998,0.00031059,0.00033714,-0.0000053
 2,0.00004417,-0.00008055,0.00002857,0.00048486,-0.00052427,0.00009015,
 0.00807277,0.05019241,-0.00004531,-0.00005520,0.00005129,-0.00010786,0
 .00020941,0.00017997,-0.01619550,-0.00016563,-0.00388393,0.00047366,-0
 .00022317,-0.00045485,-0.00014518,-0.00329861,-0.00197073,0.00012191,0
 .00001141,-0.00007107,0.00029231,0.00075785,0.00013622,-0.02902766,-0.
 00016756,-0.04936550,-0.00150560,0.00038110,0.00058661,-0.00003882,0.0
 0000800,0.00000489,0.00001949,0.00006867,0.00007967,-0.00022527,0.0003
 2833,0.00040528,-0.00124496,-0.00039240,-0.00002236,0.00039915,-0.0000
 9792,0.00021083,-0.00000585,-0.00001086,0.00005296,0.00002360,0.000010
 62,0.00005578,0.00005415,0.00008039,-0.00015768,0.00017710,-0.00001960
 ,-0.00000106,0.00020916,-0.00007296,0.00039520,0.03323263,0.00336992,0
 .05188524,0.00007531,0.00008833,0.00000412,-0.00007956,-0.00006560,0.0
 0002789,0.00088214,-0.00725117,0.00490577,-0.00013512,0.00012582,-0.00
 001258,0.00068840,-0.00094335,0.00074984,-0.00000072,-0.00004594,-0.00
 001172,-0.00028806,-0.00147591,-0.00067712,-0.06735920,0.05953110,-0.0
 3722723,-0.00016146,0.00043623,0.00000161,0.00001497,0.00000213,-0.000
 00938,0.00009627,0.00008925,-0.00001323,0.00005880,-0.00000553,0.00009
 714,0.00011828,0.00018202,0.00005053,-0.00010571,-0.00003926,-0.000290
 24,0.00001909,0.00001307,0.00000028,-0.00001328,0.00000014,-0.00000590
 ,0.00067525,-0.00045504,0.00009508,-0.00003397,0.00015169,-0.00026185,
 0.00035708,-0.00030140,0.00007131,-0.00814266,0.02640416,-0.01695367,0
 .06931638,0.00003043,0.00020578,-0.00005947,-0.00001120,-0.00014166,0.
 00008238,0.00799069,-0.02232946,0.01486071,-0.00033848,0.00003290,-0.0
 0002477,0.00127952,0.00056327,0.00118252,-0.00001372,-0.00006653,0.000
 01530,-0.00231786,-0.00382405,-0.00447415,0.05885329,-0.21516289,0.106
 34405,0.00006087,0.00069741,0.00158498,-0.00001686,0.00000472,-0.00001
 693,0.00016416,0.00011514,-0.00010885,0.00000308,-0.00013498,0.0000781
 7,0.00014920,0.00046980,-0.00019269,-0.00089286,0.00044822,-0.00063128
 ,0.00001090,0.00001726,-0.00000173,-0.00000909,-0.00000668,0.00000629,
 0.00046461,-0.00170475,0.00086413,-0.00011881,0.00031883,-0.00000491,0
 .00008313,0.00031127,-0.00010579,-0.00005571,0.00124653,-0.00111976,-0
 .06416494,0.23684257,0.00000371,-0.00018085,0.00001257,-0.00004292,0.0
 0016599,0.00000538,0.00512122,-0.01263069,0.00740854,0.00015629,-0.000
 02249,0.00002273,0.00041160,0.00005654,0.00072642,0.00000272,0.0000556
 9,0.00001672,-0.00064141,-0.00249262,-0.00119259,-0.03723288,0.1073916
 0,-0.11521344,0.00015547,-0.00058297,0.00121922,0.00001614,-0.00000110
 ,0.00000313,-0.00003736,-0.00010925,-0.00008249,-0.00006662,0.00014143
 ,-0.00015327,0.00026020,0.00005160,0.00008364,-0.00003837,0.00016221,0
 .00002770,0.00000415,-0.00002337,-0.00000084,-0.00000637,-0.00000960,-
 0.00001972,0.00008274,-0.00078147,0.00076084,-0.00019918,-0.00022195,0
 .00022073,0.00001894,-0.00001138,-0.00015367,-0.00059427,0.00180629,-0
 .00234997,0.04218255,-0.11640698,0.12319646,0.00004196,-0.00002527,0.0
 0002739,-0.00006549,0.00010092,0.00001053,0.00324301,0.00068046,-0.008
 29445,-0.00094504,-0.00059151,-0.00022450,0.00031898,0.00057494,-0.000
 21775,0.00001130,-0.00000438,-0.00003616,0.00005236,0.00029375,0.00014
 574,-0.09237364,0.00324591,0.09884569,-0.00023909,-0.00080839,-0.00063
 252,0.00004256,-0.00001355,-0.00000563,0.00002890,0.00005236,0.0000331
 6,-0.00172629,-0.00088362,-0.00028402,0.00012494,0.00001769,0.00016268
 ,-0.00009103,-0.00003717,-0.00005559,0.00001991,0.00000093,0.00001521,
 -0.00000452,0.00000324,-0.00000199,-0.00005029,0.00010251,-0.00020080,
 0.00024997,0.00029393,-0.00004775,-0.00009083,-0.00002432,0.00018135,-
 0.01314531,0.00044061,0.02986075,0.00385379,-0.00097900,-0.00947819,0.
 09980742,0.00004279,-0.00012521,0.00004556,-0.00012162,0.00017877,0.00
 014006,0.01319470,-0.00035795,-0.02355130,-0.00031024,-0.00003799,0.00
 005744,0.00054831,0.00077280,0.00045262,0.00006764,0.00000354,-0.00004
 892,0.00061312,0.00166641,-0.00108400,0.00310422,-0.04767205,-0.006227
 77,-0.00197470,-0.00479890,-0.00202343,0.00000398,0.00000847,-0.000006
 98,-0.00007878,-0.00011458,-0.00003742,-0.00079877,0.00011266,-0.00001
 357,0.00012990,-0.00001481,0.00005521,-0.00012917,-0.00003229,0.000015
 68,0.00001238,-0.00001629,0.00002623,-0.00000020,0.00000534,-0.0000030
 8,-0.00016011,0.00033061,0.00021916,-0.00024763,-0.00040520,0.00063941
 ,0.00003017,-0.00009492,0.00003485,-0.00002434,-0.00092637,0.00056389,
 -0.01240011,0.00130568,0.02342432,-0.00188615,0.05005905,0.00001031,-0
 .00012308,0.00011602,-0.00032074,0.00043398,0.00040497,0.00664684,0.00
 099645,-0.01437224,0.00050398,-0.00049057,-0.00057500,0.00098955,0.000
 15141,-0.00024600,0.00024263,0.00000395,-0.00011651,-0.00012578,0.0011
 9379,0.00046638,0.09806516,-0.00720120,-0.25918256,-0.00204897,-0.0037
 6037,-0.00060054,-0.00003825,-0.00000058,-0.00000861,0.00006054,0.0001
 6189,0.00010087,-0.00045259,0.00057414,0.00113346,-0.00012906,-0.00004
 540,0.00010832,0.00004310,-0.00008790,0.00000939,0.00003013,-0.0000191
 3,0.00008838,0.00001066,0.00003191,0.00004408,-0.00023787,-0.00001747,
 0.00020559,-0.00001310,-0.00052094,0.00078829,-0.00005338,-0.00003998,
 -0.00000472,-0.00138226,0.00038379,0.00419618,0.00699845,-0.00063776,-
 0.01443083,-0.10946517,0.00910941,0.28219082,0.00003287,-0.00004074,-0
 .00000673,-0.00003944,0.00003397,-0.00004762,0.00231422,0.01341320,0.0
 0756511,0.00010404,-0.00015965,-0.00011197,0.00088267,0.00118301,0.000
 75978,-0.00003284,0.00003001,0.00004622,0.00017060,0.00030290,-0.00063
 804,-0.00147551,-0.00012133,0.00222162,-0.06037009,-0.04976191,-0.0312
 4748,0.00003818,-0.00000691,-0.00000220,0.00001148,0.00002237,-0.00001
 120,0.00009019,0.00002674,-0.00005371,-0.00022303,-0.00028891,0.000000
 95,-0.00007932,0.00003261,-0.00002986,0.00001810,-0.00000795,-0.000014
 15,-0.00001613,-0.00000790,-0.00002100,0.00024007,-0.00012291,-0.00009
 220,-0.00013609,0.00017448,-0.00010680,-0.00006280,-0.00021114,-0.0000
 6013,0.00039565,0.00009835,0.00026795,-0.00010252,-0.00022528,-0.00004
 210,0.00058638,0.00060385,0.00069971,0.06269536,0.00002468,0.00005950,
 0.00005611,-0.00002336,0.00001757,-0.00007073,-0.00028715,-0.00184451,
 0.00019265,0.00034629,0.00028727,0.00016670,-0.00053418,-0.00013017,0.
 00026661,0.00005254,-0.00007038,-0.00008543,0.00005249,0.00068777,0.00
 072010,0.00095361,0.00107894,-0.00067045,-0.04890254,-0.22243334,-0.10
 827657,0.00002748,-0.00000361,0.00000671,0.00000159,-0.00000855,-0.000
 01431,-0.00011840,0.00005732,0.00019282,0.00064821,0.00059317,0.000155
 20,-0.00009862,-0.00005366,-0.00010389,0.00000028,0.00000992,0.0000239
 9,0.00000544,0.00000710,0.00001461,-0.00012144,0.00046305,-0.00003511,
 0.00012248,0.00021259,-0.00008011,0.00006420,-0.00004628,-0.00004198,-
 0.00005618,0.00003750,0.00022908,-0.00012257,0.00039045,0.00021761,-0.
 00024477,0.00004292,-0.00030489,0.05486393,0.24103542,-0.00001446,0.00
 005245,-0.00000060,0.00002835,0.00001841,0.00005384,-0.00756848,-0.024
 01880,-0.01511044,0.00001269,0.00033151,0.00004137,-0.00173434,-0.0004
 4367,0.00045200,0.00003300,-0.00001782,-0.00002618,-0.00059841,-0.0015
 5812,0.00111288,0.00356999,0.00126312,-0.00517990,-0.03038408,-0.10716
 861,-0.11225154,-0.00001355,-0.00000756,-0.00001072,0.00003745,0.00000
 334,-0.00004219,-0.00017199,0.00004101,0.00018488,0.00065213,0.0005496
 9,0.00072070,0.00007656,0.00013184,0.00003613,0.00000225,-0.00000106,0
 .00001078,0.00000066,-0.00000590,0.00001613,0.00019561,0.00108536,-0.0
 0010144,0.00012649,0.00021635,0.00042610,-0.00001587,0.00004184,-0.000
 07225,0.00005257,0.00036779,0.00019608,0.00015258,-0.00012175,0.000208
 41,-0.00024765,-0.00182889,-0.00097511,0.03188357,0.11990350,0.1235198
 0,-0.00011717,0.00008884,-0.00004462,0.00007106,-0.00014758,0.00056171
 ,-0.01645035,-0.00019694,-0.00325555,-0.00063723,0.00007630,-0.0010281
 8,-0.00074712,-0.00003533,0.00449285,0.00006588,-0.00001171,-0.0000174
 9,0.00028690,0.00041787,-0.00112429,0.00028260,-0.00052171,-0.00122454
 ,-0.29759915,-0.00417072,-0.03837581,-0.00021848,0.00004752,-0.0000362
 9,-0.00009266,-0.00009670,0.00012306,-0.00007037,0.00008919,0.00015578
 ,0.00042800,0.00006653,-0.00001583,0.00040767,-0.00004866,-0.00004918,
 -0.00004648,0.00000914,0.00000416,0.00003195,0.00001564,0.00002960,-0.
 00002646,0.00005998,0.00004485,0.00045766,0.00004771,0.00006854,0.0007
 2233,-0.00049347,0.00050011,0.00080358,0.00048186,0.00042067,-0.000018
 18,-0.00005783,0.00004914,0.00047671,-0.00003706,0.00006318,-0.0064432
 8,-0.00011916,-0.00112851,0.32560760,0.00001615,0.00002055,0.00000978,
 -0.00001377,0.00002165,0.00000477,0.00034666,-0.00201619,-0.00002230,0
 .00003845,0.00072084,0.00003400,-0.00005092,-0.00036189,-0.00015416,0.
 00000270,-0.00002616,-0.00001722,-0.00092108,0.00001669,-0.00012671,0.
 00100769,0.00008010,0.00010713,-0.00419767,-0.04686574,-0.00054207,-0.
 00000209,-0.00000631,-0.00000158,0.00007579,-0.00001178,-0.00011093,-0
 .00005962,-0.00000507,0.00008473,0.00031694,0.00029905,0.00030321,-0.0
 0035094,0.00027794,-0.00021464,-0.00000143,0.00000334,0.00000180,0.000
 00146,-0.00000943,0.00000641,-0.00013073,-0.00001740,-0.00001213,0.000
 18952,-0.00008187,-0.00009572,0.00007280,0.00017032,0.00037713,-0.0000
 5924,0.00013686,-0.00037526,0.00014238,-0.00003412,-0.00000840,-0.0001
 8188,-0.00008022,0.00011867,-0.02709407,0.00016065,-0.00355751,0.00465
 702,0.04663406,-0.00000668,-0.00007625,0.00010302,0.00011886,0.0001854
 7,-0.00066682,0.02800804,0.00027701,0.00324790,0.00178335,-0.00009643,
 0.00103309,0.00180720,-0.00006922,-0.00511484,0.00001321,-0.00001070,-
 0.00007962,0.00089285,-0.00067146,0.00141582,0.00094284,0.00077052,0.0
 0133130,-0.03980072,-0.00051095,-0.05261780,0.00022779,-0.00004170,0.0
 0004145,-0.00004645,0.00006822,0.00003806,-0.00008115,-0.00005696,0.00
 007126,0.00000527,0.00033435,-0.00005482,0.00000352,-0.00027753,-0.000
 06120,0.00000532,-0.00000117,0.00002226,-0.00000147,0.00000929,0.00000
 923,-0.00011865,0.00006170,-0.00008593,-0.00023790,-0.00025050,0.00023
 591,-0.00039997,0.00022264,-0.00030018,-0.00050801,-0.00024847,-0.0000
 4591,-0.00010882,-0.00008556,-0.00009886,-0.00023124,0.00025519,0.0002
 3077,-0.01601958,0.00084268,-0.00306829,0.04099044,0.00085900,0.057575
 82,0.00005627,0.00000700,-0.00001815,-0.00004749,-0.00000481,-0.000040
 43,0.00275183,-0.01301178,0.00802310,0.00012238,0.00011757,-0.00009710
 ,0.00091823,-0.00105804,0.00065567,-0.00003494,-0.00000100,0.00003025,
 -0.00149193,0.00017513,0.00235443,0.00014486,-0.00032969,-0.00060142,-
 0.06338656,0.05219105,-0.03614336,0.00003807,-0.00000518,-0.00000419,0
 .00007951,0.00000183,-0.00004871,0.00002801,-0.00002396,-0.00004702,-0
 .00003454,-0.00005536,-0.00007264,-0.00029547,0.00033976,0.00019743,0.
 00001776,-0.00000282,-0.00001013,-0.00002135,-0.00002211,-0.00000900,-
 0.00009837,0.00022817,-0.00005962,0.00060910,-0.00060498,0.00073164,0.
 00037733,-0.00008402,0.00027340,-0.00006533,0.00020532,-0.00005684,0.0
 0028470,0.00011176,-0.00008520,-0.00012666,-0.00018217,-0.00009705,0.0
 0140123,-0.00653483,0.00505344,-0.00717503,0.02619587,-0.01723806,0.06
 594840,-0.00000870,0.00008016,-0.00007433,0.00003819,-0.00006000,0.000
 09197,-0.00022495,-0.00095910,-0.00062391,-0.00034891,0.00023202,-0.00
 013788,0.00044114,-0.00002488,-0.00028034,-0.00004086,0.00000229,0.000
 06011,-0.00078804,0.00102054,0.00037168,-0.00006871,0.00071094,-0.0007
 0761,0.05153092,-0.21038478,0.11235569,-0.00002763,0.00000463,-0.00001
 603,0.00009646,0.00005460,-0.00014054,0.00001865,-0.00002122,-0.000028
 02,0.00004114,-0.00016153,0.00013849,-0.00045847,0.00045172,-0.0000645
 3,0.00000531,-0.00000403,-0.00001579,-0.00000724,-0.00003422,0.0000049
 6,0.00012099,0.00038540,-0.00022172,0.00022469,0.00014543,0.00026242,0
 .00006988,0.00000238,-0.00019764,-0.00008094,-0.00003412,-0.00001974,0
 .00010451,0.00043528,0.00000984,-0.00012723,0.00019052,0.00008987,0.00
 726325,-0.02055062,0.01472349,-0.00012075,0.00097412,-0.00148916,-0.05
 765269,0.22754449,0.00000011,-0.00009874,0.00002878,-0.00000310,0.0000
 1685,0.00000718,-0.00818060,0.02307783,-0.01572188,0.00005233,-0.00037
 289,0.00006177,-0.00166126,0.00045515,0.00058547,0.00001013,0.00003520
 ,-0.00000880,0.00361240,-0.00148592,-0.00511591,-0.00061469,0.00157333
 ,0.00113749,-0.03539066,0.11116939,-0.12334619,-0.00000736,0.00000587,
 -0.00000035,-0.00018688,-0.00008469,0.00015845,0.00000397,0.00004461,-
 0.00002387,0.00011091,-0.00011380,0.00001698,0.00080706,-0.00043965,0.
 00048953,-0.00000501,-0.00000664,0.00000080,0.00000372,0.00000616,-0.0
 0000385,0.00015051,0.00013065,0.00022058,-0.00028084,0.00177302,-0.001
 05423,0.00004850,-0.00035138,0.00022557,-0.00001032,-0.00003034,-0.000
 11312,0.00023458,-0.00102616,-0.00021682,0.00014089,-0.00021366,0.0004
 2860,0.00505987,-0.01330489,0.00985957,-0.00120380,0.00333198,-0.00316
 163,0.03730955,-0.12409128,0.13554589||0.00000250,0.00000335,0.0000044
 9,-0.00000376,0.00000300,0.00001491,0.00000145,0.00000198,-0.00000311,
 0.00000548,-0.00000124,0.00000041,-0.00000061,-0.00000258,0.00000458,-
 0.00000480,-0.00001067,0.00001146,-0.00000262,0.00000376,-0.00000217,-
 0.00000214,-0.00000334,-0.00000666,-0.00000562,0.00000067,-0.00000495,
 0.00000417,-0.00000594,0.00001090,0.00000452,-0.00000162,0.00000110,0.
 00000497,0.00000070,0.00000391,0.00000056,-0.00000137,0.00000138,0.000
 00057,0.00000394,0.00000190,-0.00000442,0.00000245,0.00000897,-0.00000
 176,0.00000207,0.00000655,0.00000046,0.00000138,-0.00000510,0.00000523
 ,-0.00000144,-0.00000398,0.00000240,0.00000213,-0.00000934,0.00000086,
 -0.00000095,-0.00000790,-0.00000076,-0.00000158,-0.00000351,0.00000520
 ,0.00000140,-0.00000044,-0.00000360,0.00000061,-0.00000801,-0.00000346
 ,0.00000196,-0.00001105,-0.00000482,0.00000134,-0.00000436|||@


 TO SEE A WORLD IN A GRAIN OF SAND
 AND A HEAVEN IN A WILD FLOWER
 HOLD INFINITY IN THE PALM OF YOUR HAND
 AND ETERNITY IN AN HOUR

                       -- WILLIAM BLAKE
 Job cpu time:       0 days  0 hours 39 minutes 26.0 seconds.
 File lengths (MBytes):  RWF=    192 Int=      0 D2E=      0 Chk=      7 Scr=      1
 Normal termination of Gaussian 09 at Sun Jun 14 20:10:24 2026.
